
                                 *****************
                                 * O   R   C   A *
                                 *****************

                                            #,                                       
                                            ###                                      
                                            ####                                     
                                            #####                                    
                                            ######                                   
                                           ########,                                 
                                     ,,################,,,,,                         
                               ,,#################################,,                 
                          ,,##########################################,,             
                       ,#########################################, ''#####,          
                    ,#############################################,,   '####,        
                  ,##################################################,,,,####,       
                ,###########''''           ''''###############################       
              ,#####''   ,,,,##########,,,,          '''####'''          '####       
            ,##' ,,,,###########################,,,                        '##       
           ' ,,###''''                  '''############,,,                           
         ,,##''                                '''############,,,,        ,,,,,,###''
      ,#''                                            '''#######################'''  
     '                                                          ''''####''''         
             ,#######,   #######,   ,#######,      ##                                
            ,#'     '#,  ##    ##  ,#'     '#,    #''#        ,####,   ,####,        
            ##       ##  ##   ,#'  ##            #'  '#       #'       #'  '#        
            ##       ##  #######   ##           ,######,      #####,   #    #        
            '#,     ,#'  ##    ##  '#,     ,#' ,#      #,     #,   #   #,  ,#        
             '#######'   ##     ##  '#######'  #'      '#     '####' # '####'        



                #########################################################
                #                        -***-                          #
                #          Department of theory and spectroscopy        #
                #                                                       #
                #                      Frank Neese                      #
                #                                                       #
                #     Directorship, Architecture, Infrastructure        #
                #                    SHARK, DRIVERS                     #
                #        Core code/Algorithms in most modules           #
                #                                                       #
                #        Max Planck Institute fuer Kohlenforschung      #
                #                Kaiser Wilhelm Platz 1                 #
                #                 D-45470 Muelheim/Ruhr                 #
                #                      Germany                          #
                #                                                       #
                #                  All rights reserved                  #
                #                        -***-                          #
                #########################################################


                         Program Version 6.0.1  -  RELEASE   -


 With contributions from (in alphabetic order):
[Max-Planck-Institut fuer Kohlenforschung]                               
  Daniel Aravena         : Magnetic Suceptibility                        
  Michael Atanasov       : Ab Initio Ligand Field Theory (pilot matlab implementation)
  Alexander A. Auer      : GIAO ZORA, VPT2 properties, NMR spectrum      
  Ute Becker             : All parallelization in ORCA, NUMFREQ, NUMCALC 
  Giovanni Bistoni       : ED, misc. LED, open-shell LED, HFLD           
  Martin Brehm           : Molecular dynamics                            
  Dmytro Bykov           : pre 5.0 version of the SCF Hessian            
  Marcos Casanova-Páez   : Triplet and SCS-CIS(D). UHF-(DLPNO)-IP/EA/STEOM-CCSD. UHF-CVS-IP/STEOM-CCSD   
  Vijay G. Chilkuri      : MRCI spin determinant printing, contributions to CSF-ICE 
  Pauline Colinet        : FMM embedding                                 
  Dipayan Datta          : RHF DLPNO-CCSD density                        
  Achintya Kumar Dutta   : EOM-CC, STEOM-CC                              
  Nicolas Foglia         : Exact transition moments, OPA infrastructure, MCD improvements    
  Dmitry Ganyushin       : Spin-Orbit,Spin-Spin,Magnetic field MRCI      
  Miquel Garcia-Rates    : C-PCM and meta-GGA Hessian, CCSD/C-PCM, Gaussian charge scheme 
  Tiago L. C. Gouveia    : GS-ROHF, GS-ROCIS                             
  Yang Guo               : DLPNO-NEVPT2, F12-NEVPT2, CIM, IAO-localization        
  Andreas Hansen         : Spin unrestricted coupled pair/coupled cluster methods 
  Ingolf Harden          : AUTO-CI MPn and infrastructure                
  Benjamin Helmich-Paris : MC-RPA, TRAH-(SCF,CASSCF), AVAS, COSX integrals, SCF dyn. polar. 
  Lee Huntington         : MR-EOM, pCC                                   
  Robert Izsak           : Overlap fitted RIJCOSX, COSX-SCS-MP3, EOM     
  Riya Kayal             : Wick's Theorem for AUTO-CI, AUTO-CI UHF-CCSDT 
  Emily Kempfer          : AUTO-CI, RHF CISDT and CCSDT                  
  Christian Kollmar      : KDIIS, OOCD, Brueckner-CCSD(T), CCSD density, CASPT2, CASPT2-K, improved NEVPT2 
  Axel Koslowski         : Symmetry handling                             
  Simone Kossmann        : meta-GGA functionals, TD-DFT gradient, OOMP2, (MP2 Hessian; deprecated post 5.0) 
  Lucas Lang             : DCDCAS                                        
  Marvin Lechner         : AUTO-CI (C++ implementation), FIC-MRCC        
  Spencer Leger          : CASSCF response                               
  Dagmar Lenk            : GEPOL surface, SMD, ORCA-2-JSON               
  Dimitrios Liakos       : Extrapolation schemes; Compound Job, initial MDCI parallelization 
  Dimitrios Manganas     : Further ROCIS development; embedding schemes. LFT, Crystal Embedding 
  Dimitrios Pantazis     : SARC Basis sets                               
  Anastasios Papadopoulos: AUTO-CI, single reference methods and gradients 
  Taras Petrenko         : pre 6.0 DFT Hessian and TD-DFT gradient, (ASA, deprecated), ECA, 1-Electron XAS/XES, NRVS 
  Peter Pinski           : DLPNO-MP2, DLPNO-MP2 Gradient                 
  Christoph Reimann      : Effective Core Potentials                     
  Marius Retegan         : Local ZFS, SOC                                
  Christoph Riplinger    : Optimizer, TS searches, QM/MM, DLPNO-CCSD(T), (RO)-DLPNO pert. Triples 
  Michael Roemelt        : Original ROCIS implementation                 
  Masaaki Saitow         : Open-shell DLPNO-CCSD energy and density      
  Barbara Sandhoefer     : DKH picture change effects                    
  Kantharuban Sivalingam : CASSCF convergence/infrastructure, NEVPT2 and variants, FIC-MRCI 
  Bernardo de Souza      : ESD, SOC TD-DFT                               
  Georgi L. Stoychev     : AutoAux, RI-MP2 NMR, DLPNO-MP2 response, X2C  
  Van Anh Tran           : RI-MP2 g-tensors                              
  Willem Van den Heuvel  : Paramagnetic NMR                              
  Zikuan Wang            : NOTCH, Electric field optimization            
  Frank Wennmohs         : Technical directorship and infrastructure     
  Hang Xu                : AUTO-CI-Response properties                   
                                                                         
[FACCTs GmbH]                                                            
  Markus Bursch, Miquel Garcia-Rates, Christoph Riplinger, Bernardo de Souza, Georgi L. Stoychev 
                                                                 
  APM, Basis sets (HGBS, AHGBS, def-TZVP (Ac-Lr), def2-XVPD (La-Lu)), CI-OPT, improved COSX, DLPNO-Multilevel,           
  DOCKER, DRACO, updates on ESD, GOAT, IRC, LR-CPCM, MBIS, meta-GGA TD-DFT gradient, ML-optimized integration grids, 
  MM, NACMEs, nearIR, NEB, NEB-TS, NL-DFT gradient (VV10), 2- and 3-layer-ONIOM, interface openCOSMO-RS, QMMM,   
  Crystal-QMMM, SF, symmetry and pop. for TD-DFT, r2SCAN hybrids, SOLVATOR                                   
                                                                         
[Other institutions]                                                     
  V. Asgeirsson          : NEB                                           
  Christoph Bannwarth    : sTDA-DFT, sTD-DFT, PBEh-3c, B97-3c, D3        
  Sebastian Ehlert       : rSCAN, r2SCAN, r2SCAN-3c, D4, dhf basis sets  
  Marvin Friede          : D4 for Fr, Ra, Ac-Lr                          
  Lars Goerigk           : TD-DFT with DH, B97 family of functionals     
  Stefan Grimme          : VdW corrections, initial TS optimization, DFT functionals, gCP, sTDA/sTD-DF 
  Waldemar Hujo          : DFT-NL                                        
  H. Jonsson             : NEB                                           
  Holger Kruse           : gCP                                           
  Marcel Mueller         : wB97X-3c, vDZP basis set                      
  Hagen Neugebauer       : wr2SCAN                                       
  Tobias Risthaus        : range-separated hybrid DFT                    
  Lukas Wittmann         : regularized MP2, r2SCAN double-hybrids, wr2SCAN        
                                                                         
We gratefully acknowledge several colleagues who have allowed us to      
interface, adapt or use parts of their codes:                            
  Ed Valeev, F. Pavosevic, A. Kumar             : LibInt (2-el integral package), F12 methods 
  Garnet Chan, S. Sharma, J. Yang, R. Olivares  : DMRG                   
  Ulf Ekstrom                                   : XCFun DFT Library      
  Mihaly Kallay                                 : mrcc  (arbitrary order and MRCC methods)
  Frank Weinhold                                : gennbo (NPA and NBO analysis)           
  Simon Mueller                                 : openCOSMO-RS                            
  Christopher J. Cramer and Donald G. Truhlar   : smd solvation model                     
  S Lehtola, MJT Oliveira, MAL Marques          : LibXC Library                           
  Liviu Ungur et al                             : ANISO software                          


 Your calculation uses the libint2 library for the computation of 2-el integrals
 For citations please refer to: http://libint.valeyev.net

 Your ORCA version has been built with support for libXC version: 6.2.2
 For citations please refer to: https://libxc.gitlab.io

 This ORCA versions uses:
   CBLAS   interface :  Fast vector & matrix operations
   LAPACKE interface :  Fast linear algebra routines
   SCALAPACK package :  Parallel linear algebra routines
   Shared memory     :  Shared parallel matrices
   BLAS/LAPACK       :  OpenBLAS 0.3.27  USE64BITINT DYNAMIC_ARCH NO_AFFINITY SkylakeX SINGLE_THREADED
        Core in use  :  SkylakeX
   Copyright (c) 2011-2014, The OpenBLAS Project


NOTE: MaxCore=700 MB was set to SCF,MP2,MDCI,CIPSI,MRCI and CIS
      => If you want to overwrite this, your respective input block should be placed after the MaxCore statement
Your calculation utilizes the atom-pairwise dispersion correction
with the Becke-Johnson damping scheme (D3BJ)


Your calculation employs the composite approach B97-3c by Grimme and coworkers.
For the correct reference, please check the publication list of the Grimme group:
http://www.thch.uni-bonn.de/tc/index.php?section=publikationen&subsection=grimme#2017
   

XCFun DFT library Copyright 2009-2010 Ulf Ekstrom and contributors.
See http://admol.org/xcfun for more information.
This is free software; see the source code for copying conditions.
There is ABSOLUTELY NO WARRANTY; not even for MERCHANTABILITY or FITNESS FOR A PARTICULAR PURPOSE.
For details see the documentation.
Scientific users of this library should cite U. Ekstrom, L. Visscher, R. Bast, A. J. Thorvaldsen and K. Ruud;
J.Chem.Theor.Comp. 2010, DOI: 10.1021/ct100117s
XCFun Version 0.99 

================================================================================

----- Orbital basis set information -----
Your calculation utilizes the basis: def2-mTZVP
----- AuxJ basis set information -----
Your calculation utilizes the basis: def2-mTZVP/J
================================================================================
                                        WARNINGS
                       Please study these warnings very carefully!
================================================================================


WARNING: your system is open-shell and RHF/RKS was chosen
  ===> : WILL SWITCH to UHF/UKS


WARNING: Geometry Optimization
  ===> : Switching off AutoStart
         For restart on a previous wavefunction, please use MOREAD

================================================================================
                                       INPUT FILE
================================================================================
NAME = HNDVDQJCIGZPNO-YFKPBYRVSA-N_68.orcainp
|  1> # Optimize file: 
|  2> # HNDVDQJCIGZPNO-YFKPBYRVSA-N_68.out
|  3> %maxcore 700
|  4> %pal nprocs 16 end
|  5> ! OPT FREQ B97-3c defgrid3 SlowConv xyzfile
|  6> * xyz 1 2
|  7>    N       -2.27829         1.69362        -0.48742
|  8>    C       -1.31380         0.61856        -0.38010
|  9>    C       -0.17894         1.04036         0.58130
| 10>    C        1.16408         0.46642         0.25464
| 11>    C        2.39000         1.08240         0.21313
| 12>    N        3.28695         0.10038        -0.13830
| 13>    C        2.59488        -1.04976        -0.30162
| 14>    N        1.31812        -0.85895        -0.07186
| 15>    C       -1.97915        -0.71929         0.03003
| 16>    O       -3.16702        -0.78323         0.21907
| 17>    O       -1.19863        -1.77888         0.14675
| 18>    H       -2.77685         1.76311         0.40079
| 19>    H       -3.00480         1.41267        -1.14428
| 20>    H       -0.86695         0.45901        -1.37758
| 21>    H       -0.11862         2.13600         0.53036
| 22>    H       -0.45341         0.78438         1.61971
| 23>    H        2.68958         2.10987         0.39669
| 24>    H        4.28372         0.21734        -0.26048
| 25>    H        3.06134        -1.99049        -0.58789
| 26>    H       -0.23872        -1.57246        -0.00516
| 27> *
| 28> 
| 29>                          ****END OF INPUT****
================================================================================

                       *****************************
                       * Geometry Optimization Run *
                       *****************************

Geometry optimization settings:
Update method            Update   .... BFGS
Choice of coordinates    CoordSys .... (2022) Redundant Internals
Initial Hessian          InHess   .... Almloef's Model
Max. no of cycles        MaxIter  .... 60

Convergence Tolerances:
Energy Change            TolE     ....  5.0000e-06 Eh
Max. Gradient            TolMAXG  ....  3.0000e-04 Eh/bohr
RMS Gradient             TolRMSG  ....  1.0000e-04 Eh/bohr
Max. Displacement        TolMAXD  ....  4.0000e-03 bohr
RMS Displacement         TolRMSD  ....  2.0000e-03 bohr
Strict Convergence                .... False

------------------------------------------------------------------------------
                        ORCA OPTIMIZATION COORDINATE SETUP
------------------------------------------------------------------------------

The optimization will be done in redundant internal coordinates (2022)
Making redundant internal coordinates   ...  (2022 redundants) done
Evaluating the initial hessian          ...  (Almloef) done
Evaluating the coordinates              ...  done
Calculating the B-matrix                .... done
Calculating the G-matrix                .... done
Diagonalizing the G-matrix              .... done
Small eigenvalue found = 2.817e-02
The first mode is                       ....   38
The number of degrees of freedom        ....   54

    -----------------------------------------------------------------
                    Redundant Internal Coordinates


    -----------------------------------------------------------------
         Definition                    Initial Value    Approx d2E/dq
    -----------------------------------------------------------------
      1. B(C   1,N   0)                  1.4483         0.451746   
      2. B(C   2,C   1)                  1.5460         0.352251   
      3. B(C   3,C   2)                  1.4966         0.422340   
      4. B(C   4,C   3)                  1.3726         0.666035   
      5. B(N   5,C   4)                  1.3756         0.589910   
      6. B(C   6,N   5)                  1.3522         0.642948   
      7. B(N   7,C   3)                  1.3737         0.594221   
      8. B(N   7,C   6)                  1.3112         0.747402   
      9. B(C   8,C   1)                  1.5494         0.347836   
     10. B(O   9,C   8)                  1.2045         1.106121   
     11. B(O  10,C   8)                  1.3212         0.720516   
     12. B(H  11,N   0)                  1.0209         0.415670   
     13. B(H  12,N   0)                  1.0189         0.418746   
     14. B(H  13,C   1)                  1.1046         0.341320   
     15. B(H  14,C   2)                  1.0985         0.349054   
     16. B(H  15,C   2)                  1.1042         0.341855   
     17. B(H  16,C   4)                  1.0859         0.365591   
     18. B(H  17,N   5)                  1.0110         0.431092   
     19. B(H  18,C   6)                  1.0884         0.362288   
     20. B(H  19,N   7)                  1.7139         0.032602   
     21. B(H  19,O  10)                  0.9935         0.459688   
     22. A(C   1,N   0,H  12)          108.5378         0.338164   
     23. A(H  11,N   0,H  12)          103.3811         0.299748   
     24. A(C   1,N   0,H  11)          108.1356         0.337749   
     25. A(N   0,C   1,C   8)          111.9983         0.368498   
     26. A(C   8,C   1,H  13)          106.7400         0.317757   
     27. A(N   0,C   1,H  13)          108.0419         0.329702   
     28. A(C   2,C   1,H  13)          107.6990         0.318411   
     29. A(C   2,C   1,C   8)          112.7176         0.355387   
     30. A(N   0,C   1,C   2)          109.4151         0.369297   
     31. A(C   1,C   2,H  15)          109.8227         0.318492   
     32. A(C   3,C   2,H  14)          108.8508         0.329245   
     33. A(C   1,C   2,H  14)          106.4751         0.319577   
     34. A(H  14,C   2,H  15)          106.7679         0.287076   
     35. A(C   1,C   2,C   3)          114.7317         0.367349   
     36. A(C   3,C   2,H  15)          109.8424         0.328115   
     37. A(C   2,C   3,C   4)          129.4929         0.410518   
     38. A(C   2,C   3,N   7)          121.5018         0.399744   
     39. A(C   4,C   3,N   7)          109.0049         0.433492   
     40. A(N   5,C   4,H  16)          122.5996         0.348695   
     41. A(C   3,C   4,H  16)          131.7530         0.358142   
     42. A(C   3,C   4,N   5)          105.6471         0.432925   
     43. A(C   4,N   5,H  17)          126.2368         0.355423   
     44. A(C   4,N   5,C   6)          107.7180         0.427382   
     45. A(C   6,N   5,H  17)          126.0434         0.360666   
     46. A(N   5,C   6,H  18)          123.2032         0.353261   
     47. A(N   7,C   6,H  18)          126.1002         0.362421   
     48. A(N   5,C   6,N   7)          110.6965         0.446000   
     49. A(C   3,N   7,C   6)          106.9325         0.439688   
     50. A(O   9,C   8,O  10)          121.7467         0.489312   
     51. A(C   1,C   8,O  10)          117.5276         0.399648   
     52. A(C   1,C   8,O   9)          120.7210         0.431297   
     53. A(C   8,O  10,H  19)          112.9944         0.371843   
     54. D(C   8,C   1,N   0,H  11)     55.6002         0.017411   
     55. D(C   2,C   1,N   0,H  11)    -70.1332         0.017411   
     56. D(H  13,C   1,N   0,H  11)    172.8778         0.017411   
     57. D(C   8,C   1,N   0,H  12)    -55.9111         0.017411   
     58. D(C   2,C   1,N   0,H  12)    178.3555         0.017411   
     59. D(C   3,C   2,C   1,N   0)   -148.0731         0.009987   
     60. D(H  14,C   2,C   1,H  13)     89.6087         0.009987   
     61. D(H  14,C   2,C   1,C   8)   -152.9155         0.009987   
     62. D(H  14,C   2,C   1,N   0)    -27.5964         0.009987   
     63. D(C   3,C   2,C   1,C   8)     86.6078         0.009987   
     64. D(C   3,C   2,C   1,H  13)    -30.8681         0.009987   
     65. D(C   4,C   3,C   2,H  15)   -101.0093         0.013185   
     66. D(C   4,C   3,C   2,H  14)     15.5608         0.013185   
     67. D(N   7,C   3,C   2,C   1)    -45.0266         0.013185   
     68. D(C   4,C   3,C   2,C   1)    134.7174         0.013185   
     69. D(N   7,C   3,C   2,H  14)   -164.1832         0.013185   
     70. D(H  16,C   4,C   3,N   7)    179.5124         0.030996   
     71. D(H  16,C   4,C   3,C   2)     -0.2567         0.030996   
     72. D(N   5,C   4,C   3,N   7)     -0.2955         0.030996   
     73. D(N   5,C   4,C   3,C   2)    179.9355         0.030996   
     74. D(H  17,N   5,C   4,H  16)      0.0070         0.027974   
     75. D(H  17,N   5,C   4,C   3)    179.8368         0.027974   
     76. D(C   6,N   5,C   4,H  16)   -179.5316         0.027974   
     77. D(C   6,N   5,C   4,C   3)      0.2983         0.027974   
     78. D(H  18,C   6,N   5,H  17)      0.1214         0.033673   
     79. D(H  18,C   6,N   5,C   4)    179.6611         0.033673   
     80. D(N   7,C   6,N   5,H  17)   -179.7382         0.033673   
     81. D(N   7,C   6,N   5,C   4)     -0.1985         0.033673   
     82. D(C   3,N   7,C   6,N   5)      0.0119         0.046873   
     83. D(C   6,N   7,C   3,C   4)      0.1809         0.028413   
     84. D(C   6,N   7,C   3,C   2)    179.9719         0.028413   
     85. D(C   3,N   7,C   6,H  18)   -179.8427         0.046873   
     86. D(O  10,C   8,C   1,C   2)    -56.7688         0.009153   
     87. D(O  10,C   8,C   1,N   0)    179.3272         0.009153   
     88. D(O   9,C   8,C   1,H  13)   -117.9514         0.009153   
     89. D(O   9,C   8,C   1,C   2)    124.0080         0.009153   
     90. D(O   9,C   8,C   1,N   0)      0.1040         0.009153   
     91. D(H  19,O  10,C   8,O   9)   -177.8977         0.039099   
     92. D(H  19,O  10,C   8,C   1)      2.8875         0.039099   
    -----------------------------------------------------------------

Number of atoms                         .... 20
Number of degrees of freedom            .... 92


         *************************************************************
         *                GEOMETRY OPTIMIZATION CYCLE   1            *
         *************************************************************
---------------------------------
CARTESIAN COORDINATES (ANGSTROEM)
---------------------------------
  N     -2.278290    1.693620   -0.487420
  C     -1.313800    0.618560   -0.380100
  C     -0.178940    1.040360    0.581300
  C      1.164080    0.466420    0.254640
  C      2.390000    1.082400    0.213130
  N      3.286950    0.100380   -0.138300
  C      2.594880   -1.049760   -0.301620
  N      1.318120   -0.858950   -0.071860
  C     -1.979150   -0.719290    0.030030
  O     -3.167020   -0.783230    0.219070
  O     -1.198630   -1.778880    0.146750
  H     -2.776850    1.763110    0.400790
  H     -3.004800    1.412670   -1.144280
  H     -0.866950    0.459010   -1.377580
  H     -0.118620    2.136000    0.530360
  H     -0.453410    0.784380    1.619710
  H      2.689580    2.109870    0.396690
  H      4.283720    0.217340   -0.260480
  H      3.061340   -1.990490   -0.587890
  H     -0.238720   -1.572460   -0.005160

----------------------------
CARTESIAN COORDINATES (A.U.)
----------------------------
  NO LB      ZA    FRAG     MASS         X           Y           Z
   0 N     7.0000    0    14.007   -4.305344    3.200478   -0.921090
   1 C     6.0000    0    12.011   -2.482722    1.168909   -0.718285
   2 C     6.0000    0    12.011   -0.338148    1.965995    1.098498
   3 C     6.0000    0    12.011    2.199792    0.881406    0.481200
   4 C     6.0000    0    12.011    4.516445    2.045440    0.402757
   5 N     7.0000    0    14.007    6.211435    0.189691   -0.261349
   6 C     6.0000    0    12.011    4.903613   -1.983759   -0.569979
   7 N     7.0000    0    14.007    2.490886   -1.623180   -0.135796
   8 C     6.0000    0    12.011   -3.740051   -1.359261    0.056748
   9 O     8.0000    0    15.999   -5.984800   -1.480090    0.413982
  10 O     8.0000    0    15.999   -2.265082   -3.361596    0.277317
  11 H     1.0000    0     1.008   -5.247486    3.331795    0.757383
  12 H     1.0000    0     1.008   -5.678249    2.669559   -2.162376
  13 H     1.0000    0     1.008   -1.638298    0.867403   -2.603249
  14 H     1.0000    0     1.008   -0.224159    4.036455    1.002235
  15 H     1.0000    0     1.008   -0.856821    1.482263    3.060808
  16 H     1.0000    0     1.008    5.082570    3.987076    0.749635
  17 H     1.0000    0     1.008    8.095058    0.410713   -0.492236
  18 H     1.0000    0     1.008    5.785094   -3.761481   -1.110951
  19 H     1.0000    0     1.008   -0.451115   -2.971519   -0.009751

--------------------------------
INTERNAL COORDINATES (ANGSTROEM)
--------------------------------
 N      0   0   0     0.000000000000     0.00000000     0.00000000
 C      1   0   0     1.448279167184     0.00000000     0.00000000
 C      2   1   0     1.545998842044   109.41510911     0.00000000
 C      3   2   1     1.496601683682   114.73171022   211.92685764
 C      4   3   2     1.372601284751   129.49289788   134.71737983
 N      5   4   3     1.375640079309   105.64714518   179.93545010
 C      6   5   4     1.352204247479   107.71803758     0.29826931
 N      7   6   5     1.311226224303   110.69646386   359.80152053
 C      2   1   3     1.549432109484   111.99833995   125.73340489
 O      9   2   1     1.204516327038   120.72099081     0.10398179
 O      9   2   1     1.321198696979   117.52760488   179.32721195
 H      1   2   3     1.020934835237   108.13561828   289.86681695
 H      1   2   3     1.018928232115   108.53781939   178.35550126
 H      2   1   3     1.104580225878   108.04186711   243.01098284
 H      3   2   1     1.098480949129   106.47511915   332.40360846
 H      3   2   1     1.104153462794   109.82274688    87.64313036
 H      5   4   3     1.085880771954   131.75300448   359.74328366
 H      6   5   4     1.011018311852   126.23680312   179.83682612
 H      7   6   5     1.088351219690   123.20315260   179.66111041
 H     11   9   2     0.993535642340   112.99436257     2.88753841

---------------------------
INTERNAL COORDINATES (A.U.)
---------------------------
 N      0   0   0     0.000000000000     0.00000000     0.00000000
 C      1   0   0     2.736850991442     0.00000000     0.00000000
 C      2   1   0     2.921514414822   109.41510911     0.00000000
 C      3   2   1     2.828167313725   114.73171022   211.92685764
 C      4   3   2     2.593840519248   129.49289788   134.71737983
 N      5   4   3     2.599583008739   105.64714518   179.93545010
 C      6   5   4     2.555295704860   107.71803758     0.29826931
 N      7   6   5     2.477858463548   110.69646386   359.80152053
 C      2   1   3     2.928002350029   111.99833995   125.73340489
 O      9   2   1     2.276205981938   120.72099081     0.10398179
 O      9   2   1     2.496703705785   117.52760488   179.32721195
 H      1   2   3     1.929287239178   108.13561828   289.86681695
 H      1   2   3     1.925495308817   108.53781939   178.35550126
 H      2   1   3     2.087354119854   108.04186711   243.01098284
 H      3   2   1     2.075828157184   106.47511915   332.40360846
 H      3   2   1     2.086547654501   109.82274688    87.64313036
 H      5   4   3     2.052017273085   131.75300448   359.74328366
 H      6   5   4     1.910547725780   126.23680312   179.83682612
 H      7   6   5     2.056685742733   123.20315260   179.66111041
 H     11   9   2     1.877510268312   112.99436257     2.88753841

---------------------
BASIS SET INFORMATION
---------------------
There are 4 groups of distinct atoms

 Group   1 Type N   : 11s6p1d contracted to 5s3p1d pattern {62111/411/1}
 Group   2 Type C   : 11s6p1d contracted to 5s3p1d pattern {62111/411/1}
 Group   3 Type O   : 11s6p2d contracted to 5s3p2d pattern {62111/411/11}
 Group   4 Type H   : 5s contracted to 3s pattern {311}

Atom   0N    basis set group =>   1
Atom   1C    basis set group =>   2
Atom   2C    basis set group =>   2
Atom   3C    basis set group =>   2
Atom   4C    basis set group =>   2
Atom   5N    basis set group =>   1
Atom   6C    basis set group =>   2
Atom   7N    basis set group =>   1
Atom   8C    basis set group =>   2
Atom   9O    basis set group =>   3
Atom  10O    basis set group =>   3
Atom  11H    basis set group =>   4
Atom  12H    basis set group =>   4
Atom  13H    basis set group =>   4
Atom  14H    basis set group =>   4
Atom  15H    basis set group =>   4
Atom  16H    basis set group =>   4
Atom  17H    basis set group =>   4
Atom  18H    basis set group =>   4
Atom  19H    basis set group =>   4
---------------------------------
AUXILIARY/J BASIS SET INFORMATION
---------------------------------
There are 4 groups of distinct atoms

 Group   1 Type N   : 8s3p3d contracted to 6s3p3d pattern {311111/111/111}
 Group   2 Type C   : 8s3p3d contracted to 6s3p3d pattern {311111/111/111}
 Group   3 Type O   : 8s3p3d contracted to 6s3p3d pattern {311111/111/111}
 Group   4 Type H   : 5s2p contracted to 3s1p pattern {311/2}

Atom   0N    basis set group =>   1
Atom   1C    basis set group =>   2
Atom   2C    basis set group =>   2
Atom   3C    basis set group =>   2
Atom   4C    basis set group =>   2
Atom   5N    basis set group =>   1
Atom   6C    basis set group =>   2
Atom   7N    basis set group =>   1
Atom   8C    basis set group =>   2
Atom   9O    basis set group =>   3
Atom  10O    basis set group =>   3
Atom  11H    basis set group =>   4
Atom  12H    basis set group =>   4
Atom  13H    basis set group =>   4
Atom  14H    basis set group =>   4
Atom  15H    basis set group =>   4
Atom  16H    basis set group =>   4
Atom  17H    basis set group =>   4
Atom  18H    basis set group =>   4
Atom  19H    basis set group =>   4


           ************************************************************
           *        Program running with 16 parallel MPI-processes    *
           *              working on a common directory               *
           ************************************************************
------------------------------------------------------------------------------
                             ORCA STARTUP CALCULATIONS
                           -- RI-GTO INTEGRALS CHOSEN --
------------------------------------------------------------------------------
------------------------------------------------------------------------------
                   ___                                                        
                  /   \      - P O W E R E D   B Y -                         
                 /     \                                                     
                 |  |  |   _    _      __       _____    __    __             
                 |  |  |  | |  | |    /  \     |  _  \  |  |  /  |          
                  \  \/   | |  | |   /    \    | | | |  |  | /  /          
                 / \  \   | |__| |  /  /\  \   | |_| |  |  |/  /          
                |  |  |   |  __  | /  /__\  \  |    /   |      \           
                |  |  |   | |  | | |   __   |  |    \   |  |\   \          
                \     /   | |  | | |  |  |  |  | |\  \  |  | \   \       
                 \___/    |_|  |_| |__|  |__|  |_| \__\ |__|  \__/        
                                                                              
                      - O R C A' S   B I G   F R I E N D -                    
                                      &                                       
                       - I N T E G R A L  F E E D E R -                       
                                                                              
 v1 FN, 2020, v2 2021, v3 2022-2024                                           
------------------------------------------------------------------------------


----------------------
SHARK INTEGRAL PACKAGE
----------------------

Number of atoms                             ...     20
Number of basis functions                   ...    246
Number of shells                            ...    128
Maximum angular momentum                    ...      2
Integral batch strategy                     ... SHARK/LIBINT Hybrid
RI-J (if used) integral strategy            ... SPLIT-RIJ (Revised 2003 algorithm where possible)
Printlevel                                  ...      1
Contraction scheme used                     ... SEGMENTED contraction
Prescreening option                         ... SCHWARTZ
   Thresh                                   ... 2.500e-11
   Tcut                                     ... 2.500e-12
   Tpresel                                  ... 2.500e-12 
Coulomb Range Separation                    ... NOT USED
Exchange Range Separation                   ... NOT USED
Multipole approximations                    ... NOT USED
Finite Nucleus Model                        ... NOT USED
CABS basis                                  ... NOT available
Auxiliary Coulomb fitting basis             ... AVAILABLE
   # of basis functions in Aux-J            ...    384
   # of shells in Aux-J                     ...    168
   Maximum angular momentum in Aux-J        ...      2
Auxiliary J/K fitting basis                 ... NOT available
Auxiliary Correlation fitting basis         ... NOT available
Auxiliary 'external' fitting basis          ... NOT available

Checking pre-screening integrals            ... done (  0.0 sec) Dimension = 128
Check shell pair data                       ... done (  0.0 sec)
Shell pair information
Shell pair cut-off parameter TPreSel        ...   2.5e-12
Total number of shell pairs                 ...      8256
Shell pairs after pre-screening             ...      7175
Total number of primitive shell pairs       ...     30404
Primitive shell pairs kept                  ...     18155
          la=0 lb=0:   2805 shell pairs
          la=1 lb=0:   2447 shell pairs
          la=1 lb=1:    535 shell pairs
          la=2 lb=0:    907 shell pairs
          la=2 lb=1:    397 shell pairs
          la=2 lb=2:     84 shell pairs

Calculating one electron integrals          ... done (  0.0 sec)
Calculating RI/J V-Matrix + Cholesky decomp.... done (  0.0 sec)
Calculating Nuclear repulsion               ... done (  0.0 sec) ENN=    618.329348660949 Eh

Diagonalization of the overlap matrix:
Smallest eigenvalue                        ... 7.502e-05
Time for diagonalization                   ...    0.012 sec
Threshold for overlap eigenvalues          ... 1.000e-07
Number of eigenvalues below threshold      ... 0
Time for construction of square roots      ...    0.013 sec
Total time needed                          ...    0.033 sec

-------------------
DFT GRID GENERATION
-------------------

General Integration Accuracy     IntAcc      ... 4.959
Radial Grid Type                 RadialGrid  ... OptM3 with GC (2021)
Angular Grid (max. ang.)         AngularGrid ... 6 (Lebedev-590)
Angular grid pruning method      GridPruning ... 4 (adaptive)
Weight generation scheme         WeightScheme... mBecke (2022)
Basis function cutoff            BFCut       ... 1.0000e-11
Integration weight cutoff        WCut        ... 1.0000e-14
Partially contracted basis set               ... off
Rotationally invariant grid construction     ... off
Angular grids for H and He will be reduced by one unit
Diffuse basis detected: some atoms will have their outermost
                        angular grid increased by 1.

Total number of grid points                  ...   235915
Total number of batches                      ...     3694
Average number of points per batch           ...       63
Average number of grid points per atom       ...    11796
Initializing property integral containers    ... done (  0.0 sec)

SHARK setup successfully completed in   3.5 seconds

Maximum memory used throughout the entire STARTUP-calculation: 52.1 MB


           ************************************************************
           *        Program running with 16 parallel MPI-processes    *
           *              working on a common directory               *
           ************************************************************
-------------------------------------------------------------------------------
                                 ORCA GUESS
                   Start orbitals & Density for SCF / CASSCF
-------------------------------------------------------------------------------

------------
SCF SETTINGS
------------
Hamiltonian:
 Density Functional     Method          .... DFT(GTOs)
 Exchange Functional    Exchange        .... B973C
 Correlation Functional Correlation     .... B973C
 Gradients option       PostSCFGGA      .... off
 RI-approximation to the Coulomb term is turned on
   Number of AuxJ basis functions       .... 384


General Settings:
 Integral files         IntName         .... HNDVDQJCIGZPNO-YFKPBYRVSA-N_68.orcainp
 Hartree-Fock type      HFTyp           .... UHF
 Total Charge           Charge          ....    1
 Multiplicity           Mult            ....    2
 Number of Electrons    NEL             ....   81
 Basis Dimension        Dim             ....  246
 Nuclear Repulsion      ENuc            ....    618.3293486609 Eh

Convergence Acceleration:
 AO-DIIS                CNVDIIS         .... on
   Start iteration      DIISMaxIt       ....     0
   Startup error        DIISStart       ....  0.200000
   # of expansion vecs  DIISMaxEq       ....     5
   Bias factor          DIISBfac        ....   1.050
   Max. coefficient     DIISMaxC        ....  10.000
 MO-DIIS                CNVKDIIS        .... off
 Trust-Rad. Augm. Hess. CNVTRAH         .... auto
   Auto Start mean grad. ratio tolernc. ....  1.125000
   Auto Start start iteration           ....    50
   Auto Start num. interpolation iter.  ....    10
   Max. Number of Micro iterations      ....    24
   Max. Number of Macro iterations      .... Maxiter - #DIIS iter
   Number of Davidson start vectors     ....     2
   Converg. threshold    (grad. norm)   ....   1.000e-05
   Grad. Scal. Fac. for Micro threshold ....   0.100
   Minimum threshold for Micro iter.    ....   1.000e-02
   NR start threshold (gradient norm)   ....   1.000e-04
   Initial trust radius                 ....   0.400
   Minimum AH scaling param. (alpha)    ....   1.000
   Maximum AH scaling param. (alpha)    .... 1000.000
   Quad. conv. algorithm                .... NR
   White noise on init. David. guess    .... on
   Maximum white noise                  ....   0.010
   Pseudo random numbers                .... off
   Inactive MOs                         .... canonical
   Orbital update algorithm             .... Taylor
   Preconditioner                       .... Diag
   Full preconditioner red. dimension   ....   250
   COSX micro iterations for RIJONX calc.... off
 SOSCF                  CNVSOSCF        .... on
   Start iteration      SOSCFMaxIt      ....   150
   Startup grad/error   SOSCFStart      ....  0.001000
   Hessian update       SOSCFHessUp     .... L-BFGS
 Level Shifting         CNVShift        .... on
   Level shift para.    LevelShift      ....    0.2500
   Turn off err/grad.   ShiftErr        ....    0.0000
 Zerner damping         CNVZerner       .... off
 Static damping         CNVDamp         .... on
   Fraction old density DampFac         ....    0.8500
   Max. Damping (<1)    DampMax         ....    0.9800
   Min. Damping (>=0)   DampMin         ....    0.0000
   Turn off err/grad.   DampErr         ....    0.0300

SCF Procedure:
 Maximum # iterations   MaxIter         ....   125
 SCF integral mode      SCFMode         .... Direct
   Integral package                     .... SHARK and LIBINT hybrid scheme
 Reset frequency        DirectResetFreq ....    20
 Integral Threshold     Thresh          ....  2.500e-11 Eh
 Primitive CutOff       TCut            ....  2.500e-12 Eh

Convergence Tolerance:
 Convergence Check Mode ConvCheckMode   .... Total+1el-Energy
 Convergence forced     ConvForced      .... 0
 Energy Change          TolE            ....  1.000e-08 Eh
 1-El. energy change                    ....  1.000e-05 Eh
 Orbital Gradient       TolG            ....  1.000e-05
 Orbital Rotation angle TolX            ....  1.000e-05
 DIIS Error             TolErr          ....  5.000e-07

--------------------------------
INITIAL GUESS: MINIMAL BASIS EHT
--------------------------------
The minimal basis has 64 functions
EHT matrix was diagonalized
Basis set overlap was calculated now projecting the orbitals
Using GuessMode=FMatrix for the initial guess
C*T matrix was formed
Effective Fockian was calculated
Effective Fockian was diagonalized
Initial density was built
                      ------------------
                      INITIAL GUESS DONE
                      ------------------
             **** ENERGY FILE WAS UPDATED (HNDVDQJCIGZPNO-YFKPBYRVSA-N_68.orcainp.en.tmp) ****
Finished Guess after   0.9 sec
Maximum memory used throughout the entire GUESS-calculation: 13.5 MB


           ************************************************************
           *        Program running with 16 parallel MPI-processes    *
           *              working on a common directory               *
           ************************************************************

-------------------------------------------------------------------------------------------
                                      ORCA LEAN-SCF
                              memory conserving SCF solver
-------------------------------------------------------------------------------------------

----------------------------------------D-I-I-S--------------------------------------------
Iteration    Energy (Eh)           Delta-E    RMSDP     MaxDP     DIISErr   Damp  Time(sec)
-------------------------------------------------------------------------------------------
               ***  Starting incremental Fock matrix formation  ***
    1    -546.0803608893255614     0.00e+00  1.66e-03  5.61e-02  2.28e-01  0.850   1.4
Warning: op=0 Small HOMO/LUMO gap (  -0.068) - skipping pre-diagonalization
         Will do a full diagonalization
    2    -546.5794154413623573    -4.99e-01  1.79e-03  9.18e-02  1.89e-01  0.850   1.4
                               ***Turning on AO-DIIS***
    3    -546.8188820383430766    -2.39e-01  1.16e-03  5.11e-02  1.63e-01  0.850   1.3
    4    -547.0069377224648406    -1.88e-01  8.37e-04  1.78e-02  1.37e-01  0.850   1.1
    5    -547.1533193149201679    -1.46e-01  6.90e-04  1.60e-02  1.15e-01  0.850   1.3
    6    -547.2849160386737140    -1.32e-01  6.64e-04  1.61e-02  9.75e-02  0.850   1.3
    7    -547.4105148138463619    -1.26e-01  7.66e-04  2.97e-02  8.31e-02  0.850   1.4
    8    -547.5232738778883004    -1.13e-01  5.40e-04  1.35e-02  7.14e-02  0.850   1.1
    9    -547.6173597366613421    -9.41e-02  3.93e-04  1.03e-02  6.10e-02  0.850   1.1
   10    -547.6945957924950790    -7.72e-02  3.43e-04  1.03e-02  5.17e-02  0.850   1.4
   11    -547.7591443610789383    -6.45e-02  3.06e-04  9.94e-03  4.37e-02  0.850   1.1
   12    -547.8146455052468582    -5.55e-02  2.64e-04  7.09e-03  3.70e-02  0.850   1.2
   13    -547.8625731407886406    -4.79e-02  2.26e-04  6.14e-03  3.15e-02  0.850   1.1
   14    -547.9032478255131764    -4.07e-02  1.98e-04  6.56e-03  2.69e-02  0.850   1.1
   15    -547.9374624014668598    -3.42e-02  1.18e-03  4.47e-02  2.29e-02  0.000   1.6
   16    -548.1290297654282995    -1.92e-01  9.76e-05  3.17e-03  2.37e-03  0.000   1.6
   17    -548.1291218664777034    -9.21e-05  6.00e-05  2.69e-03  3.68e-03  0.000   1.3
   18    -548.1292975868562962    -1.76e-04  4.75e-05  2.26e-03  1.16e-03  0.000   1.3
                              *** Initializing SOSCF ***
---------------------------------------S-O-S-C-F--------------------------------------
Iteration    Energy (Eh)           Delta-E    RMSDP     MaxDP     MaxGrad    Time(sec)
--------------------------------------------------------------------------------------
   19    -548.1293439699776400    -4.64e-05  3.41e-05  1.68e-03  7.38e-04     1.3
               *** Restarting incremental Fock matrix formation ***
   20    -548.1293716944481957    -2.77e-05  4.80e-05  2.45e-03  1.31e-03     1.3
   21    -548.1293879110841090    -1.62e-05  8.14e-05  3.42e-03  1.76e-03     1.0
   22    -548.1294265175598639    -3.86e-05  3.14e-05  1.08e-03  2.86e-04     1.3
   23    -548.1294270497147636    -5.32e-07  1.10e-05  5.55e-04  3.29e-04     1.1
   24    -548.1294309921473769    -3.94e-06  7.25e-06  2.73e-04  9.00e-05     1.0
   25    -548.1294311479658745    -1.56e-07  3.38e-06  1.04e-04  1.13e-04     1.1
   26    -548.1294314084015014    -2.60e-07  3.69e-06  1.29e-04  4.72e-05     1.0
   27    -548.1294314430900840    -3.47e-08  1.38e-06  5.08e-05  2.77e-05     1.3
   28    -548.1294314897542108    -4.67e-08  1.22e-06  5.10e-05  1.45e-05     1.0
   29    -548.1294314916223129    -1.87e-09  5.67e-07  3.40e-05  1.79e-05     1.1
                 **** Energy Check signals convergence ****

               *****************************************************
               *                     SUCCESS                       *
               *           SCF CONVERGED AFTER  29 CYCLES          *
               *****************************************************

             **** ENERGY FILE WAS UPDATED (HNDVDQJCIGZPNO-YFKPBYRVSA-N_68.orcainp.en.tmp) ****

----------------
TOTAL SCF ENERGY
----------------

Total Energy       :       -548.12943149162231 Eh          -14915.36011 eV

Components:
Nuclear Repulsion  :        618.32934866094854 Eh           16825.59697 eV
Electronic Energy  :      -1166.45878015257085 Eh          -31740.95709 eV
One Electron Energy:      -1958.35647992966778 Eh          -53289.58901 eV
Two Electron Energy:        791.89769977709682 Eh           21548.63192 eV

Virial components:
Potential Energy   :      -1094.20029981931202 Eh          -29774.70387 eV
Kinetic Energy     :        546.07086832768982 Eh           14859.34376 eV
Virial Ratio       :          2.00376977290555

DFT components:
N(Alpha)           :       40.999999396580 electrons
N(Beta)            :       39.999999741227 electrons
N(Total)           :       80.999999137807 electrons
E(XC)              :      -73.119748540723 Eh       

---------------
SCF CONVERGENCE
---------------

  Last Energy change         ...    1.8681e-09  Tolerance :   1.0000e-08
  Last MAX-Density change    ...    3.3966e-05  Tolerance :   1.0000e-07
  Last RMS-Density change    ...    5.6670e-07  Tolerance :   5.0000e-09
  Last DIIS Error            ...    7.3804e-04  Tolerance :   5.0000e-07
  Last Orbital Gradient      ...    1.7896e-05  Tolerance :   1.0000e-05
  Last Orbital Rotation      ...    2.8169e-05  Tolerance :   1.0000e-05


----------------------
UHF SPIN CONTAMINATION
----------------------

Warning: in a DFT calculation there is little theoretical justification to 
         calculate <S**2> as in Hartree-Fock theory. We will do it anyways
         but you should keep in mind that the values have only limited relevance

Expectation value of <S**2>     :     0.752818
Ideal value S*(S+1) for S=0.5   :     0.750000
Deviation                       :     0.002818

----------------
ORBITAL ENERGIES
----------------
                 SPIN UP ORBITALS
  NO   OCC          E(Eh)            E(eV) 
   0   1.0000     -18.939816      -515.3786 
   1   1.0000     -18.909365      -514.5500 
   2   1.0000     -14.240479      -387.5031 
   3   1.0000     -14.184798      -385.9880 
   4   1.0000     -14.171785      -385.6339 
   5   1.0000     -10.185750      -277.1684 
   6   1.0000     -10.148033      -276.1420 
   7   1.0000     -10.131686      -275.6972 
   8   1.0000     -10.128801      -275.6187 
   9   1.0000     -10.123435      -275.4727 
  10   1.0000     -10.090012      -274.5632 
  11   1.0000      -1.184835       -32.2410 
  12   1.0000      -1.145740       -31.1772 
  13   1.0000      -1.109838       -30.2002 
  14   1.0000      -1.024026       -27.8652 
  15   1.0000      -1.004470       -27.3330 
  16   1.0000      -0.910571       -24.7779 
  17   1.0000      -0.861390       -23.4396 
  18   1.0000      -0.786810       -21.4102 
  19   1.0000      -0.761332       -20.7169 
  20   1.0000      -0.724770       -19.7220 
  21   1.0000      -0.713316       -19.4103 
  22   1.0000      -0.696350       -18.9487 
  23   1.0000      -0.666691       -18.1416 
  24   1.0000      -0.635755       -17.2998 
  25   1.0000      -0.610886       -16.6230 
  26   1.0000      -0.597793       -16.2668 
  27   1.0000      -0.585691       -15.9375 
  28   1.0000      -0.580502       -15.7963 
  29   1.0000      -0.568545       -15.4709 
  30   1.0000      -0.554476       -15.0880 
  31   1.0000      -0.535576       -14.5738 
  32   1.0000      -0.530913       -14.4469 
  33   1.0000      -0.507540       -13.8109 
  34   1.0000      -0.499969       -13.6049 
  35   1.0000      -0.450148       -12.2492 
  36   1.0000      -0.444670       -12.1001 
  37   1.0000      -0.437283       -11.8991 
  38   1.0000      -0.421727       -11.4758 
  39   1.0000      -0.408355       -11.1119 
  40   1.0000      -0.404966       -11.0197 
  41   0.0000      -0.205134        -5.5820 
  42   0.0000      -0.192075        -5.2266 
  43   0.0000      -0.178113        -4.8467 
  44   0.0000      -0.132091        -3.5944 
  45   0.0000      -0.122247        -3.3265 
  46   0.0000      -0.099475        -2.7068 
  47   0.0000      -0.092295        -2.5115 
  48   0.0000      -0.083242        -2.2651 
  49   0.0000      -0.073819        -2.0087 
  50   0.0000      -0.066100        -1.7987 
  51   0.0000      -0.057172        -1.5557 

                 SPIN DOWN ORBITALS
  NO   OCC          E(Eh)            E(eV) 
   0   1.0000     -18.938933      -515.3546 
   1   1.0000     -18.906590      -514.4745 
   2   1.0000     -14.240538      -387.5047 
   3   1.0000     -14.181913      -385.9095 
   4   1.0000     -14.172102      -385.6425 
   5   1.0000     -10.185583      -277.1638 
   6   1.0000     -10.147531      -276.1284 
   7   1.0000     -10.131308      -275.6869 
   8   1.0000     -10.128193      -275.6021 
   9   1.0000     -10.123004      -275.4609 
  10   1.0000     -10.089924      -274.5608 
  11   1.0000      -1.179817       -32.1045 
  12   1.0000      -1.142595       -31.0916 
  13   1.0000      -1.103165       -30.0187 
  14   1.0000      -1.015946       -27.6453 
  15   1.0000      -1.002891       -27.2900 
  16   1.0000      -0.904830       -24.6217 
  17   1.0000      -0.854781       -23.2598 
  18   1.0000      -0.781194       -21.2574 
  19   1.0000      -0.758936       -20.6517 
  20   1.0000      -0.721125       -19.6228 
  21   1.0000      -0.710662       -19.3381 
  22   1.0000      -0.692427       -18.8419 
  23   1.0000      -0.659937       -17.9578 
  24   1.0000      -0.631127       -17.1738 
  25   1.0000      -0.606874       -16.5139 
  26   1.0000      -0.592082       -16.1114 
  27   1.0000      -0.582853       -15.8602 
  28   1.0000      -0.574531       -15.6338 
  29   1.0000      -0.564217       -15.3531 
  30   1.0000      -0.550323       -14.9751 
  31   1.0000      -0.531656       -14.4671 
  32   1.0000      -0.528402       -14.3786 
  33   1.0000      -0.501712       -13.6523 
  34   1.0000      -0.496384       -13.5073 
  35   1.0000      -0.447824       -12.1859 
  36   1.0000      -0.440551       -11.9880 
  37   1.0000      -0.433332       -11.7916 
  38   1.0000      -0.399959       -10.8834 
  39   1.0000      -0.391934       -10.6651 
  40   0.0000      -0.385953       -10.5023 
  41   0.0000      -0.195253        -5.3131 
  42   0.0000      -0.188191        -5.1209 
  43   0.0000      -0.168240        -4.5780 
  44   0.0000      -0.131733        -3.5846 
  45   0.0000      -0.120919        -3.2904 
  46   0.0000      -0.098884        -2.6908 
  47   0.0000      -0.091186        -2.4813 
  48   0.0000      -0.081768        -2.2250 
  49   0.0000      -0.072339        -1.9684 
  50   0.0000      -0.063598        -1.7306 
*Only the first 10 virtual orbitals were printed.

                    ********************************
                    * MULLIKEN POPULATION ANALYSIS *
                    ********************************

--------------------------------------------
MULLIKEN ATOMIC CHARGES AND SPIN POPULATIONS
--------------------------------------------
   0 N :   -0.455582    0.296198
   1 C :   -0.250617    0.042720
   2 C :   -0.353124    0.015106
   3 C :    0.103163    0.126204
   4 C :   -0.061967    0.182412
   5 N :   -0.274997   -0.011471
   6 C :   -0.003550    0.130063
   7 N :   -0.244345   -0.038692
   8 C :    0.425686    0.030755
   9 O :   -0.262415    0.195778
  10 O :   -0.422573    0.045330
  11 H :    0.361049   -0.005818
  12 H :    0.365662   -0.004160
  13 H :    0.251851    0.005330
  14 H :    0.248667   -0.000033
  15 H :    0.230480    0.003132
  16 H :    0.263164   -0.005637
  17 H :    0.397095   -0.000458
  18 H :    0.256262   -0.004281
  19 H :    0.426090   -0.002477
Sum of atomic charges         :    1.0000000
Sum of atomic spin populations:    1.0000000

-----------------------------------------------------
MULLIKEN REDUCED ORBITAL CHARGES AND SPIN POPULATIONS
-----------------------------------------------------
CHARGE
  0 N s       :     3.566233  s :     3.566233
      pz      :     1.251631  p :     3.850991
      px      :     1.215626
      py      :     1.383733
      dz2     :     0.005835  d :     0.038358
      dxz     :     0.013867
      dyz     :     0.003799
      dx2y2   :     0.006278
      dxy     :     0.008579

  1 C s       :     3.262277  s :     3.262277
      pz      :     1.129927  p :     2.929307
      px      :     0.912126
      py      :     0.887253
      dz2     :     0.011462  d :     0.059033
      dxz     :     0.011718
      dyz     :     0.006993
      dx2y2   :     0.013088
      dxy     :     0.015772

  2 C s       :     3.162378  s :     3.162378
      pz      :     1.044216  p :     3.147821
      px      :     0.939427
      py      :     1.164178
      dz2     :     0.012064  d :     0.042925
      dxz     :     0.009390
      dyz     :     0.002977
      dx2y2   :     0.011741
      dxy     :     0.006752

  3 C s       :     3.155667  s :     3.155667
      pz      :     0.940264  p :     2.678884
      px      :     0.962862
      py      :     0.775758
      dz2     :     0.005062  d :     0.062286
      dxz     :     0.008027
      dyz     :     0.009684
      dx2y2   :     0.019707
      dxy     :     0.019806

  4 C s       :     3.154585  s :     3.154585
      pz      :     0.945887  p :     2.855652
      px      :     0.894967
      py      :     1.014799
      dz2     :     0.005067  d :     0.051729
      dxz     :     0.008908
      dyz     :     0.005640
      dx2y2   :     0.013221
      dxy     :     0.018892

  5 N s       :     3.371082  s :     3.371082
      pz      :     1.485803  p :     3.857735
      px      :     1.217329
      py      :     1.154603
      dz2     :     0.005203  d :     0.046180
      dxz     :     0.004075
      dyz     :     0.007965
      dx2y2   :     0.015787
      dxy     :     0.013150

  6 C s       :     3.179796  s :     3.179796
      pz      :     0.897275  p :     2.752806
      px      :     0.885468
      py      :     0.970063
      dz2     :     0.004853  d :     0.070948
      dxz     :     0.013509
      dyz     :     0.007628
      dx2y2   :     0.018541
      dxy     :     0.026417

  7 N s       :     3.537965  s :     3.537965
      pz      :     1.234749  p :     3.660328
      px      :     1.264873
      py      :     1.160706
      dz2     :     0.004832  d :     0.046053
      dxz     :     0.007827
      dyz     :     0.006614
      dx2y2   :     0.018998
      dxy     :     0.007782

  8 C s       :     3.018443  s :     3.018443
      pz      :     0.776391  p :     2.438225
      px      :     0.787465
      py      :     0.874369
      dz2     :     0.006217  d :     0.117645
      dxz     :     0.025884
      dyz     :     0.010818
      dx2y2   :     0.030719
      dxy     :     0.044008

  9 O s       :     3.850420  s :     3.850420
      pz      :     1.447260  p :     4.374719
      px      :     1.313704
      py      :     1.613756
      dz2     :     0.005362  d :     0.037276
      dxz     :     0.008495
      dyz     :     0.003680
      dx2y2   :     0.016280
      dxy     :     0.003459

 10 O s       :     3.779008  s :     3.779008
      pz      :     1.728080  p :     4.613438
      px      :     1.368408
      py      :     1.516950
      dz2     :     0.003949  d :     0.030127
      dxz     :     0.003544
      dyz     :     0.006209
      dx2y2   :     0.004135
      dxy     :     0.012289

 11 H s       :     0.638951  s :     0.638951

 12 H s       :     0.634338  s :     0.634338

 13 H s       :     0.748149  s :     0.748149

 14 H s       :     0.751333  s :     0.751333

 15 H s       :     0.769520  s :     0.769520

 16 H s       :     0.736836  s :     0.736836

 17 H s       :     0.602905  s :     0.602905

 18 H s       :     0.743738  s :     0.743738

 19 H s       :     0.573910  s :     0.573910


SPIN
  0 N s       :     0.032984  s :     0.032984
      pz      :     0.024799  p :     0.264483
      px      :     0.056748
      py      :     0.182936
      dz2     :    -0.000206  d :    -0.001270
      dxz     :    -0.000282
      dyz     :    -0.000217
      dx2y2   :    -0.000282
      dxy     :    -0.000283

  1 C s       :    -0.003439  s :    -0.003439
      pz      :     0.000075  p :     0.043236
      px      :     0.009203
      py      :     0.033958
      dz2     :     0.000103  d :     0.002923
      dxz     :     0.000054
      dyz     :     0.000451
      dx2y2   :     0.002193
      dxy     :     0.000122

  2 C s       :     0.004533  s :     0.004533
      pz      :     0.007331  p :     0.009604
      px      :     0.003878
      py      :    -0.001604
      dz2     :    -0.000087  d :     0.000969
      dxz     :     0.001106
      dyz     :    -0.000024
      dx2y2   :     0.000017
      dxy     :    -0.000043

  3 C s       :     0.004133  s :     0.004133
      pz      :     0.103777  p :     0.120896
      px      :     0.006788
      py      :     0.010331
      dz2     :    -0.000270  d :     0.001174
      dxz     :     0.001097
      dyz     :     0.000160
      dx2y2   :     0.000143
      dxy     :     0.000046

  4 C s       :     0.013592  s :     0.013592
      pz      :     0.151191  p :     0.168218
      px      :     0.002715
      py      :     0.014312
      dz2     :    -0.000388  d :     0.000601
      dxz     :     0.000868
      dyz     :    -0.000015
      dx2y2   :     0.000036
      dxy     :     0.000100

  5 N s       :    -0.004570  s :    -0.004570
      pz      :     0.003077  p :    -0.008677
      px      :    -0.004420
      py      :    -0.007335
      dz2     :     0.000271  d :     0.001776
      dxz     :     0.000067
      dyz     :     0.001349
      dx2y2   :     0.000062
      dxy     :     0.000028

  6 C s       :     0.010796  s :     0.010796
      pz      :     0.103265  p :     0.119544
      px      :     0.006312
      py      :     0.009967
      dz2     :    -0.000301  d :    -0.000277
      dxz     :    -0.000000
      dyz     :    -0.000025
      dx2y2   :     0.000014
      dxy     :     0.000036

  7 N s       :    -0.004701  s :    -0.004701
      pz      :    -0.020783  p :    -0.035157
      px      :    -0.006358
      py      :    -0.008016
      dz2     :     0.000246  d :     0.001166
      dxz     :     0.000455
      dyz     :     0.000417
      dx2y2   :    -0.000015
      dxy     :     0.000063

  8 C s       :     0.004160  s :     0.004160
      pz      :    -0.004120  p :     0.020079
      px      :     0.002629
      py      :     0.021569
      dz2     :     0.000148  d :     0.006516
      dxz     :     0.000023
      dyz     :     0.000164
      dx2y2   :     0.000424
      dxy     :     0.005757

  9 O s       :     0.007520  s :     0.007520
      pz      :     0.019313  p :     0.188650
      px      :     0.006248
      py      :     0.163088
      dz2     :     0.000070  d :    -0.000391
      dxz     :    -0.000257
      dyz     :     0.000007
      dx2y2   :     0.000145
      dxy     :    -0.000356

 10 O s       :    -0.004207  s :    -0.004207
      pz      :     0.000046  p :     0.049878
      px      :     0.002377
      py      :     0.047455
      dz2     :     0.000131  d :    -0.000341
      dxz     :    -0.000155
      dyz     :     0.000035
      dx2y2   :    -0.000758
      dxy     :     0.000406

 11 H s       :    -0.005818  s :    -0.005818

 12 H s       :    -0.004160  s :    -0.004160

 13 H s       :     0.005330  s :     0.005330

 14 H s       :    -0.000033  s :    -0.000033

 15 H s       :     0.003132  s :     0.003132

 16 H s       :    -0.005637  s :    -0.005637

 17 H s       :    -0.000458  s :    -0.000458

 18 H s       :    -0.004281  s :    -0.004281

 19 H s       :    -0.002477  s :    -0.002477



                     *******************************
                     * LOEWDIN POPULATION ANALYSIS *
                     *******************************

-------------------------------------------
LOEWDIN ATOMIC CHARGES AND SPIN POPULATIONS
-------------------------------------------
   0 N :   -0.308004    0.275601
   1 C :   -0.058096    0.063486
   2 C :   -0.253629    0.015229
   3 C :    0.016613    0.117366
   4 C :   -0.027089    0.167848
   5 N :   -0.152295    0.004698
   6 C :    0.059152    0.115943
   7 N :   -0.186148   -0.022381
   8 C :    0.376246    0.037327
   9 O :   -0.306976    0.185638
  10 O :   -0.480248    0.047348
  11 H :    0.297894   -0.002760
  12 H :    0.301069   -0.001518
  13 H :    0.205125    0.003784
  14 H :    0.199842   -0.000271
  15 H :    0.202611    0.003142
  16 H :    0.208175   -0.005317
  17 H :    0.325231   -0.000391
  18 H :    0.202898   -0.004169
  19 H :    0.377629   -0.000603

----------------------------------------------------
LOEWDIN REDUCED ORBITAL CHARGES AND SPIN POPULATIONS
----------------------------------------------------
CHARGE
  0 N s       :     3.280372  s :     3.280372
      pz      :     1.289620  p :     3.968777
      px      :     1.267452
      py      :     1.411705
      dz2     :     0.009170  d :     0.058855
      dxz     :     0.020680
      dyz     :     0.005462
      dx2y2   :     0.008939
      dxy     :     0.014605

  1 C s       :     2.891429  s :     2.891429
      pz      :     1.108557  p :     3.052965
      px      :     0.992688
      py      :     0.951720
      dz2     :     0.020917  d :     0.113703
      dxz     :     0.021854
      dyz     :     0.012850
      dx2y2   :     0.024743
      dxy     :     0.033339

  2 C s       :     2.931510  s :     2.931510
      pz      :     1.103866  p :     3.246346
      px      :     1.015051
      py      :     1.127429
      dz2     :     0.020114  d :     0.075773
      dxz     :     0.017890
      dyz     :     0.004899
      dx2y2   :     0.020784
      dxy     :     0.012086

  3 C s       :     2.850753  s :     2.850753
      pz      :     0.945657  p :     3.004148
      px      :     1.070539
      py      :     0.987952
      dz2     :     0.010075  d :     0.128486
      dxz     :     0.013760
      dyz     :     0.018441
      dx2y2   :     0.043681
      dxy     :     0.042529

  4 C s       :     2.904437  s :     2.904437
      pz      :     0.963299  p :     3.018283
      px      :     1.003878
      py      :     1.051105
      dz2     :     0.009291  d :     0.104369
      dxz     :     0.017584
      dyz     :     0.009184
      dx2y2   :     0.025685
      dxy     :     0.042625

  5 N s       :     3.120462  s :     3.120462
      pz      :     1.448009  p :     3.944198
      px      :     1.243284
      py      :     1.252905
      dz2     :     0.008348  d :     0.087635
      dxz     :     0.006194
      dyz     :     0.015586
      dx2y2   :     0.028877
      dxy     :     0.028630

  6 C s       :     2.879236  s :     2.879236
      pz      :     0.914411  p :     2.916156
      px      :     0.988514
      py      :     1.013231
      dz2     :     0.010788  d :     0.145456
      dxz     :     0.025152
      dyz     :     0.012321
      dx2y2   :     0.041230
      dxy     :     0.055966

  7 N s       :     3.218044  s :     3.218044
      pz      :     1.237508  p :     3.883572
      px      :     1.343944
      py      :     1.302120
      dz2     :     0.009380  d :     0.084532
      dxz     :     0.012435
      dyz     :     0.011197
      dx2y2   :     0.036510
      dxy     :     0.015010

  8 C s       :     2.752517  s :     2.752517
      pz      :     0.745769  p :     2.608612
      px      :     0.956277
      py      :     0.906566
      dz2     :     0.018332  d :     0.262625
      dxz     :     0.049677
      dyz     :     0.019881
      dx2y2   :     0.073670
      dxy     :     0.101065

  9 O s       :     3.542146  s :     3.542146
      pz      :     1.432167  p :     4.506132
      px      :     1.485117
      py      :     1.588848
      dz2     :     0.033789  d :     0.258698
      dxz     :     0.053720
      dyz     :     0.018449
      dx2y2   :     0.076820
      dxy     :     0.075920

 10 O s       :     3.507654  s :     3.507654
      pz      :     1.699302  p :     4.674127
      px      :     1.412094
      py      :     1.562730
      dz2     :     0.043495  d :     0.298467
      dxz     :     0.038004
      dyz     :     0.038804
      dx2y2   :     0.108774
      dxy     :     0.069391

 11 H s       :     0.702106  s :     0.702106

 12 H s       :     0.698931  s :     0.698931

 13 H s       :     0.794875  s :     0.794875

 14 H s       :     0.800158  s :     0.800158

 15 H s       :     0.797389  s :     0.797389

 16 H s       :     0.791825  s :     0.791825

 17 H s       :     0.674769  s :     0.674769

 18 H s       :     0.797102  s :     0.797102

 19 H s       :     0.622371  s :     0.622371


SPIN
  0 N s       :     0.033426  s :     0.033426
      pz      :     0.021852  p :     0.242941
      px      :     0.053836
      py      :     0.167253
      dz2     :    -0.000247  d :    -0.000765
      dxz     :    -0.000396
      dyz     :    -0.000173
      dx2y2   :     0.000368
      dxy     :    -0.000317

  1 C s       :    -0.000260  s :    -0.000260
      pz      :     0.001483  p :     0.058878
      px      :     0.020275
      py      :     0.037120
      dz2     :     0.000189  d :     0.004867
      dxz     :     0.000021
      dyz     :     0.000659
      dx2y2   :     0.003837
      dxy     :     0.000161

  2 C s       :     0.000807  s :     0.000807
      pz      :     0.009499  p :     0.012486
      px      :     0.003290
      py      :    -0.000302
      dz2     :    -0.000092  d :     0.001936
      dxz     :     0.001923
      dyz     :    -0.000004
      dx2y2   :     0.000067
      dxy     :     0.000041

  3 C s       :     0.003426  s :     0.003426
      pz      :     0.096740  p :     0.111763
      px      :     0.006153
      py      :     0.008869
      dz2     :    -0.000247  d :     0.002177
      dxz     :     0.001942
      dyz     :     0.000237
      dx2y2   :     0.000183
      dxy     :     0.000063

  4 C s       :     0.005088  s :     0.005088
      pz      :     0.146565  p :     0.161482
      px      :     0.003348
      py      :     0.011569
      dz2     :    -0.000260  d :     0.001278
      dxz     :     0.001557
      dyz     :    -0.000110
      dx2y2   :     0.000047
      dxy     :     0.000044

  5 N s       :    -0.000989  s :    -0.000989
      pz      :     0.005985  p :     0.001364
      px      :    -0.000926
      py      :    -0.003696
      dz2     :     0.000623  d :     0.004323
      dxz     :     0.000268
      dyz     :     0.002823
      dx2y2   :     0.000262
      dxy     :     0.000347

  6 C s       :     0.004251  s :     0.004251
      pz      :     0.100112  p :     0.112667
      px      :     0.004718
      py      :     0.007837
      dz2     :    -0.000306  d :    -0.000975
      dxz     :    -0.000174
      dyz     :    -0.000116
      dx2y2   :    -0.000210
      dxy     :    -0.000169

  7 N s       :    -0.001201  s :    -0.001201
      pz      :    -0.017521  p :    -0.024571
      px      :    -0.002682
      py      :    -0.004368
      dz2     :     0.000596  d :     0.003392
      dxz     :     0.001114
      dyz     :     0.001075
      dx2y2   :     0.000301
      dxy     :     0.000306

  8 C s       :     0.004236  s :     0.004236
      pz      :    -0.003279  p :     0.018725
      px      :     0.002586
      py      :     0.019418
      dz2     :     0.000480  d :     0.014366
      dxz     :     0.000292
      dyz     :     0.000308
      dx2y2   :     0.000935
      dxy     :     0.012351

  9 O s       :     0.002969  s :     0.002969
      pz      :     0.017741  p :     0.179331
      px      :     0.004747
      py      :     0.156843
      dz2     :    -0.000069  d :     0.003338
      dxz     :    -0.000032
      dyz     :    -0.000205
      dx2y2   :     0.002214
      dxy     :     0.001431

 10 O s       :     0.001374  s :     0.001374
      pz      :    -0.000042  p :     0.046485
      px      :     0.003102
      py      :     0.043425
      dz2     :     0.000685  d :    -0.000511
      dxz     :    -0.000619
      dyz     :    -0.000167
      dx2y2   :    -0.000594
      dxy     :     0.000184

 11 H s       :    -0.002760  s :    -0.002760

 12 H s       :    -0.001518  s :    -0.001518

 13 H s       :     0.003784  s :     0.003784

 14 H s       :    -0.000271  s :    -0.000271

 15 H s       :     0.003142  s :     0.003142

 16 H s       :    -0.005317  s :    -0.005317

 17 H s       :    -0.000391  s :    -0.000391

 18 H s       :    -0.004169  s :    -0.004169

 19 H s       :    -0.000603  s :    -0.000603



                      *****************************
                      * MAYER POPULATION ANALYSIS *
                      *****************************

  NA   - Mulliken gross atomic population
  ZA   - Total nuclear charge
  QA   - Mulliken gross atomic charge
  VA   - Mayer's total valence
  BVA  - Mayer's bonded valence
  FA   - Mayer's free valence

  ATOM       NA         ZA         QA         VA         BVA        FA
  0 N      7.4556     7.0000    -0.4556     3.1690     3.0950     0.0740
  1 C      6.2506     6.0000    -0.2506     3.6855     3.6809     0.0047
  2 C      6.3531     6.0000    -0.3531     3.5612     3.5607     0.0005
  3 C      5.8968     6.0000     0.1032     3.8504     3.8357     0.0147
  4 C      6.0620     6.0000    -0.0620     3.8304     3.8031     0.0273
  5 N      7.2750     7.0000    -0.2750     3.3552     3.3550     0.0002
  6 C      6.0036     6.0000    -0.0036     3.9785     3.9660     0.0125
  7 N      7.2443     7.0000    -0.2443     3.0126     3.0121     0.0006
  8 C      5.5743     6.0000     0.4257     4.0819     4.0784     0.0035
  9 O      8.2624     8.0000    -0.2624     2.2844     2.2540     0.0304
 10 O      8.4226     8.0000    -0.4226     1.9587     1.9564     0.0022
 11 H      0.6390     1.0000     0.3610     0.8556     0.8556     0.0000
 12 H      0.6343     1.0000     0.3657     0.8545     0.8544     0.0000
 13 H      0.7481     1.0000     0.2519     0.9144     0.9144     0.0000
 14 H      0.7513     1.0000     0.2487     0.9314     0.9314     0.0000
 15 H      0.7695     1.0000     0.2305     0.9346     0.9346     0.0000
 16 H      0.7368     1.0000     0.2632     0.9125     0.9124     0.0000
 17 H      0.6029     1.0000     0.3971     0.8252     0.8252     0.0000
 18 H      0.7437     1.0000     0.2563     0.9286     0.9286     0.0000
 19 H      0.5739     1.0000     0.4261     0.8248     0.8247     0.0000

  Mayer bond orders larger than 0.100000
B(  0-N ,  1-C ) :   1.1699 B(  0-N , 11-H ) :   0.8245 B(  0-N , 12-H ) :   0.8471 
B(  1-C ,  2-C ) :   0.7912 B(  1-C ,  8-C ) :   0.7728 B(  1-C , 13-H ) :   0.9233 
B(  2-C ,  3-C ) :   0.9769 B(  2-C , 14-H ) :   0.9409 B(  2-C , 15-H ) :   0.8932 
B(  3-C ,  4-C ) :   1.4359 B(  3-C ,  7-N ) :   1.2439 B(  4-C ,  5-N ) :   1.2944 
B(  4-C , 16-H ) :   0.8769 B(  5-N ,  6-C ) :   1.2443 B(  5-N , 17-H ) :   0.7941 
B(  6-C ,  7-N ) :   1.5875 B(  6-C , 18-H ) :   0.9052 B(  7-N , 19-H ) :   0.1903 
B(  8-C ,  9-O ) :   1.9743 B(  8-C , 10-O ) :   1.2697 B( 10-O , 19-H ) :   0.6107 


-------
TIMINGS
-------

Total SCF time: 0 days 0 hours 0 min 36 sec 

Total time                  ....      36.727 sec
Sum of individual times     ....      35.881 sec  ( 97.7%)

SCF preparation             ....       0.743 sec  (  2.0%)
Fock matrix formation       ....      30.062 sec  ( 81.9%)
  Startup                   ....       0.395 sec  (  1.3% of F)
  Split-RI-J                ....       2.559 sec  (  8.5% of F)
  XC integration            ....      24.560 sec  ( 81.7% of F)
    XC Preparation          ....       0.000 sec  (  0.0% of XC)
    Basis function eval.    ....       3.440 sec  ( 14.0% of XC)
    Density eval.           ....       3.336 sec  ( 13.6% of XC)
    XC-Functional eval.     ....       0.881 sec  (  3.6% of XC)
    XC-Potential eval.      ....       4.801 sec  ( 19.5% of XC)
Diagonalization             ....       0.000 sec  (  0.0%)
Density matrix formation    ....       1.183 sec  (  3.2%)
Total Energy calculation    ....       0.352 sec  (  1.0%)
Population analysis         ....       0.090 sec  (  0.2%)
Orbital Transformation      ....       0.173 sec  (  0.5%)
Orbital Orthonormalization  ....       0.000 sec  (  0.0%)
DIIS solution               ....       2.494 sec  (  6.8%)
SOSCF solution              ....       0.783 sec  (  2.1%)
Finished LeanSCF after  36.8 sec

Maximum memory used throughout the entire LEANSCF-calculation: 37.1 MB


           ************************************************************
           *        Program running with 16 parallel MPI-processes    *
           *              working on a common directory               *
           ************************************************************

------------------------------------------------------------------------------
                         ORCA PROPERTY INTEGRAL CALCULATIONS
------------------------------------------------------------------------------

GBWName                                   ... HNDVDQJCIGZPNO-YFKPBYRVSA-N_68.orcainp.gbw
Number of atoms                           ...     20
Number of basis functions                 ...    246
Max core memory                           ...    700 MB

Dipole integrals                          ... YES
Quadrupole integrals                      ...  NO
Linear momentum integrals                 ...  NO
Angular momentum integrals                ...  NO
Higher moments length integrals           ...  NO
Higher moments velocity integrals         ...  NO
Kinetic energy integrals                  ...  NO
GIAO right hand sides                     ...  NO
GIAO dipole derivative integrals          ...  NO
SOC integrals                             ...  NO
EPR diamagnetic integrals (GIAO)          ...  NO
EPR gauge integrals                       ...  NO
Field gradient integrals                  ...  NO (   0 nuclei)
Spin-dipole/Fermi contact integrals       ...  NO (   0 nuclei)
Contact density integrals                 ...  NO (   0 nuclei)
Nucleus-orbit integrals                   ...  NO (   0 nuclei)
Geometric perturbations                   ...  NO (  20 nuclei)

Choice of electric origin   ... Center of mass
Position of electric origin ... ( -0.0305, -0.0640,  0.0052) 
Choice of magnetic origin   ... GIAO
Position of magnetic origin ... (  0.0000,  0.0000,  0.0000) 

Calculating integrals                     ... Electric Dipole (Length)     done (  0.0 sec)

Property integrals calculated in   0.0 sec

Maximum memory used throughout the entire PROPINT-calculation: 14.4 MB


-------------------------------------------------------------------------------
                          DFT DISPERSION CORRECTION                            
                                                                               
                              DFTD3 V3.1  Rev 1                                
                          USING Becke-Johnson damping                          
-------------------------------------------------------------------------------
The B97-3c composite method is recognized
Using three-body term ABC
Active option DFTDOPT                   ...         4   

molecular C6(AA) [au] = 3931.285037 


            DFT-D V3
 parameters
 s6 scaling factor         :     1.0000 
 a1 scaling factor         :     0.3700 
 s8 scaling factor         :     1.5000 
 a2 scaling factor         :     4.1000 
 Damping factor alpha9(ATM):    16.0000 
 ad hoc parameters k1-k3   :    16.0000     1.3333    -4.0000 

 Edisp/kcal,au: -28.623924848135  -0.045615122923 
 E6   /kcal   : -14.728135333 
 E8   /kcal   : -13.921383067 
 E6(ABC)      :   0.025593551 
 % E8         :  48.635479379 
 % E6(ABC)    :  -0.089413145 

-------------------------   ----------------
Dispersion correction           -0.045615123
-------------------------   ----------------

------------------   -----------------
SRB correction            -0.061203864
------------------   -----------------

-------------------------   --------------------
FINAL SINGLE POINT ENERGY      -548.236250478645
-------------------------   --------------------



           ************************************************************
           *        Program running with 16 parallel MPI-processes    *
           *              working on a common directory               *
           ************************************************************
------------------------------------------------------------------------------
                         ORCA SCF GRADIENT CALCULATION
------------------------------------------------------------------------------

Nuc. rep. gradient        (SHARK) ... done (  0.0 sec)
HCore & Overlap gradient  (SHARK) ... done (  0.1 sec)
Split-RIJ-J gradient      (SHARK) ... done (  0.3 sec)
XC gradient                       ... done (  2.8 sec)
Dispersion correction             ... done (  0.1 sec)

-------------------
DISPERSION GRADIENT
-------------------

   1   N   :   -0.000570560    0.000665737   -0.000323546
   2   C   :   -0.000637952    0.000330692   -0.000258258
[...]
------------------------------------------------------------------------------

Nuc. rep. gradient        (SHARK) ... done (  0.0 sec)
HCore & Overlap gradient  (SHARK) ... done (  0.1 sec)
Split-RIJ-J gradient      (SHARK) ... done (  0.3 sec)
XC gradient                       ... done (  2.8 sec)
Dispersion correction             ... done (  0.0 sec)

-------------------
DISPERSION GRADIENT
-------------------

   1   N   :   -0.000631081    0.000541279   -0.000096727
   2   C   :   -0.000547739    0.000956957   -0.000317492
   3   C   :   -0.000209872    0.000677330    0.000285551
   4   C   :    0.000311569    0.000263765    0.000191594
   5   C   :    0.000840994    0.000338920   -0.000022769
   6   N   :    0.000582411   -0.000081247   -0.000071995
   7   C   :    0.000502525   -0.000573148   -0.000065443
   8   N   :    0.000529179   -0.000554818    0.000085576
   9   C   :   -0.000651680   -0.001070688   -0.000031968
  10   O   :   -0.000463379   -0.000518426   -0.000086953
  11   O   :   -0.000350629   -0.000768330    0.000068555
  12   H   :   -0.000362613    0.000188414    0.000150032
  13   H   :   -0.000292841    0.000249399   -0.000096738
  14   H   :   -0.000184978    0.000216375   -0.000535971
  15   H   :   -0.000003429    0.000459497    0.000116819
  16   H   :   -0.000080927    0.000248719    0.000473581
  17   H   :    0.000357221    0.000408489   -0.000010794
  18   H   :    0.000439400   -0.000033166   -0.000065106
  19   H   :    0.000171833   -0.000435263   -0.000053360
  20   H   :    0.000044035   -0.000514056    0.000083609

Difference to translation invariance:
           :    0.0000000000    0.0000000000    0.0000000000

Difference to rotation invariance:
           :    0.0000000000   -0.0000000000   -0.0000000000

Norm of the Dispersion gradient    ...    0.0031875922
RMS gradient                       ...    0.0004115164
MAX gradient                       ...    0.0010706883
SRB correction                   ... done

------------------
CARTESIAN GRADIENT
------------------

   1   N   :   -0.000038999    0.000146399   -0.000035384
   2   C   :    0.000341732    0.000427498    0.000000637
   3   C   :    0.000068999   -0.000076236    0.000185310
   4   C   :    0.000113563    0.000207144    0.000128830
   5   C   :    0.000101295   -0.000294184   -0.000105913
   6   N   :   -0.000178680   -0.000156848   -0.000094632
   7   C   :    0.000088319    0.000065170   -0.000008005
   8   N   :   -0.000190147   -0.000056751    0.000078688
   9   C   :    0.000339240    0.000073696   -0.000132831
  10   O   :   -0.000462878   -0.000234051    0.000069018
  11   O   :   -0.000015371    0.000089666    0.000099088
  12   H   :   -0.000067367   -0.000064394   -0.000082171
  13   H   :   -0.000012507   -0.000010393    0.000065706
  14   H   :   -0.000087784   -0.000313836   -0.000051020
  15   H   :   -0.000093271   -0.000001855    0.000031140
  16   H   :   -0.000059058   -0.000032314   -0.000022421
  17   H   :   -0.000044288    0.000002546    0.000009541
  18   H   :    0.000003928    0.000037074    0.000057826
  19   H   :    0.000036355    0.000121478    0.000039199
  20   H   :    0.000156919    0.000070192   -0.000232606

Difference to translation invariance:
           :   -0.0000000000   -0.0000000000   -0.0000000000

Difference to rotation invariance:
           :   -0.0000232578   -0.0000055157   -0.0001296835

Norm of the Cartesian gradient     ...    0.0011635666
RMS gradient                       ...    0.0001502158
MAX gradient                       ...    0.0004628780

-------
TIMINGS
-------

Total SCF gradient time     ....        3.240 sec

Densities                   ....       0.002 sec  (  0.1%)
One electron gradient       ....       0.079 sec  (  2.4%)
RI-J Coulomb gradient       ....       0.308 sec  (  9.5%)
XC gradient                 ....       2.779 sec  ( 85.8%)

Maximum memory used throughout the entire SCFGRAD-calculation: 44.1 MB
------------------------------------------------------------------------------
                         ORCA GEOMETRY RELAXATION STEP
------------------------------------------------------------------------------

Reading the OPT-File                    .... done
Getting information on internals        .... done
Copying old internal coords+grads       .... done
Making the new internal coordinates     .... (2022 redundants) done
Validating the new internal coordinates .... (2022 redundants) done
Calculating the B-matrix                .... done
Calculating the G,G- and P matrices     .... done
Transforming gradient to internals      .... done
Projecting the internal gradient        .... done
Number of atoms                         ....  20
Number of internal coordinates          ....  88
Current Energy                          ....  -548.284450834 Eh
Current gradient norm                   ....     0.001163567 Eh/bohr
Maximum allowed component of the step   ....  0.300
Current trust radius                    ....  0.100
Updating the Hessian (BFGS)             .... done
Forming the augmented Hessian           .... done
Diagonalizing the augmented Hessian     .... done
Last element of RFO vector              ....  0.999757071
Lowest eigenvalues of augmented Hessian:
 -0.000008582  0.002117620  0.004019081  0.008206720  0.010353384
Length of the computed step             ....  0.022046193
The final length of the internal step   ....  0.022046193
Converting the step to Cartesian space:
 Initial RMS(Int)=    0.0023501320
Transforming coordinates:
 Iter   0:  RMS(Cart)=    0.0070877534 RMS(Int)=    0.0021756236
 Iter   5:  RMS(Cart)=    0.0000401649 RMS(Int)=    0.0000141744
 Iter  10:  RMS(Cart)=    0.0000010838 RMS(Int)=    0.0000003812
done
Storing new coordinates                 .... done
The predicted energy change is          ....    -0.000004293
Previously predicted energy change      ....    -0.000004039
Actually observed energy change         ....    -0.000007302
Ratio of predicted to observed change   ....     1.807645867
New trust radius                        ....     0.100000000

                                .--------------------.
          ----------------------|Geometry convergence|-------------------------
          Item                value                   Tolerance       Converged
          ---------------------------------------------------------------------
          Energy change      -0.0000073018            0.0000050000      NO
          RMS gradient        0.0002427390            0.0001000000      NO
          MAX gradient        0.0012749997            0.0003000000      NO
          RMS step            0.0023501320            0.0020000000      NO
          MAX step            0.0091829025            0.0040000000      NO
          ........................................................
          Max(Bonds)      0.0024      Max(Angles)    0.53
          Max(Dihed)        0.37      Max(Improp)    0.00
          ---------------------------------------------------------------------

The optimization has not yet converged - more geometry cycles are needed


    ---------------------------------------------------------------------------
                         Redundant Internal Coordinates
                            (Angstroem and degrees)

        Definition                    Value    dE/dq     Step     New-Value
    ----------------------------------------------------------------------------
     1. B(C   1,N   0)                1.3771  0.000125 -0.0000    1.3771   
     2. B(C   2,C   1)                1.4952 -0.000092  0.0001    1.4953   
     3. B(C   3,C   2)                1.4813  0.000014 -0.0000    1.4813   
     4. B(C   4,C   3)                1.3606 -0.000026  0.0001    1.3606   
     5. B(N   5,C   4)                1.3766 -0.000205 -0.0002    1.3764   
     6. B(C   6,N   5)                1.3314 -0.000313  0.0001    1.3316   
     7. B(N   7,C   3)                1.3798  0.000194 -0.0002    1.3797   
     8. B(N   7,C   6)                1.3291  0.000066 -0.0001    1.3290   
     9. B(O   9,C   8)                1.1590  0.000331 -0.0001    1.1589   
    10. B(O  10,C   8)                1.1722  0.000071 -0.0001    1.1722   
    11. B(H  11,N   0)                1.0080 -0.000064 -0.0001    1.0079   
    12. B(H  12,N   0)                1.0065 -0.000026  0.0002    1.0068   
    13. B(H  13,C   1)                1.0832  0.000070  0.0000    1.0832   
    14. B(H  14,C   2)                1.0972 -0.000027 -0.0002    1.0971   
    15. B(H  15,C   2)                1.0960 -0.000002  0.0000    1.0960   
    16. B(H  16,C   4)                1.0731 -0.000016  0.0001    1.0732   
    17. B(H  17,N   5)                1.0078 -0.000007 -0.0001    1.0077   
    18. B(H  18,C   6)                1.0734 -0.000113  0.0000    1.0735   
    19. B(H  19,O  10)                1.9494  0.000153  0.0024    1.9517   
    20. B(H  19,N   7)                1.0168 -0.000014  0.0002    1.0169   
    21. A(H  11,N   0,H  12)          112.31 -0.000081    0.07    112.38   
    22. A(C   1,N   0,H  11)          117.83  0.000043   -0.10    117.73   
    23. A(C   1,N   0,H  12)          116.86  0.000006   -0.06    116.81   
    24. A(N   0,C   1,H  13)          114.52 -0.000093    0.10    114.62   
    25. A(N   0,C   1,C   2)          116.82  0.000063   -0.01    116.81   
    26. A(C   2,C   1,H  13)          117.49  0.000130   -0.03    117.46   
    27. A(C   3,C   2,H  15)          108.87  0.000127   -0.02    108.85   
    28. A(C   1,C   2,H  15)          109.88  0.000022   -0.06    109.82   
    29. A(C   3,C   2,H  14)          108.03  0.000038    0.02    108.04   
    30. A(C   1,C   2,C   3)          112.13 -0.000159    0.02    112.14   
    31. A(C   1,C   2,H  14)          112.48 -0.000030    0.06    112.54   
    32. A(H  14,C   2,H  15)          105.18  0.000020   -0.02    105.16   
    33. A(C   2,C   3,C   4)          132.08 -0.000140   -0.02    132.06   
    34. A(C   2,C   3,N   7)          122.21  0.000269    0.01    122.22   
    35. A(C   4,C   3,N   7)          105.71 -0.000129    0.00    105.71   
    36. A(N   5,C   4,H  16)          122.30 -0.000025   -0.02    122.28   
    37. A(C   3,C   4,H  16)          130.63 -0.000113    0.03    130.67   
    38. A(C   3,C   4,N   5)          107.06  0.000138   -0.01    107.05   
    39. A(C   4,N   5,H  17)          125.56 -0.000040    0.01    125.57   
    40. A(C   4,N   5,C   6)          109.75 -0.000002    0.01    109.77   
    41. A(C   6,N   5,H  17)          124.69  0.000042   -0.02    124.66   
    42. A(N   7,C   6,H  18)          126.57  0.000003   -0.01    126.56   
    43. A(N   5,C   6,H  18)          126.47 -0.000128    0.03    126.50   
    44. A(N   5,C   6,N   7)          106.95  0.000126   -0.01    106.94   
    45. A(C   6,N   7,H  19)          125.32 -0.000515    0.02    125.34   
    46. A(C   3,N   7,H  19)          124.07  0.000649   -0.03    124.04   
    47. A(C   3,N   7,C   6)          110.53 -0.000133    0.01    110.54   
    48. L(O   9,C   8,O  10,H  19, 2) 180.02 -0.000066    0.06    180.08   
    49. L(O   9,C   8,O  10,H  19, 1) 181.89  0.000856   -0.06    181.83   
    50. A(C   8,O  10,H  19)          123.40  0.001275   -0.40    123.01   
    51. L(N   7,H  19,O  10,C   3, 1) 182.05  0.001129    0.35    182.40   
    52. L(N   7,H  19,O  10,C   3, 2) 172.51  0.000116   -0.53    171.98   
    53. D(H  13,C   1,N   0,H  12)     36.49 -0.000074    0.21     36.70   
    54. D(H  13,C   1,N   0,H  11)    174.96 -0.000150    0.11    175.08   
    55. D(C   2,C   1,N   0,H  11)    -42.00  0.000040    0.20    -41.80   
    56. D(C   2,C   1,N   0,H  12)    179.52  0.000116    0.30    179.82   
    57. D(C   3,C   2,C   1,H  13)    -47.06  0.000231   -0.24    -47.30   
    58. D(C   3,C   2,C   1,N   0)    171.01  0.000119   -0.37    170.64   
    59. D(H  14,C   2,C   1,N   0)    -67.00  0.000029   -0.30    -67.29   
    60. D(H  14,C   2,C   1,H  13)     74.93  0.000141   -0.16     74.77   
    61. D(H  15,C   2,C   1,N   0)     49.80  0.000049   -0.32     49.48   
    62. D(N   7,C   3,C   2,H  14)   -170.80  0.000033    0.02   -170.78   
    63. D(C   4,C   3,C   2,H  15)   -104.19 -0.000100    0.18   -104.01   
    64. D(C   4,C   3,C   2,C   1)    134.02 -0.000111    0.25    134.28   
    65. D(C   4,C   3,C   2,H  14)      9.53  0.000007    0.16      9.68   
    66. D(N   7,C   3,C   2,C   1)    -46.30 -0.000085    0.12    -46.19   
    67. D(N   5,C   4,C   3,C   2)    179.59  0.000036   -0.15    179.45   
    68. D(H  16,C   4,C   3,N   7)    179.88  0.000003    0.07    179.95   
    69. D(H  16,C   4,C   3,C   2)     -0.41  0.000027   -0.05     -0.46   
    70. D(N   5,C   4,C   3,N   7)     -0.12  0.000013   -0.03     -0.15   
    71. D(H  17,N   5,C   4,H  16)     -0.15  0.000033   -0.23     -0.37   
    72. D(H  17,N   5,C   4,C   3)    179.85  0.000024   -0.14    179.71   
    73. D(C   6,N   5,C   4,H  16)   -179.80 -0.000005   -0.05   -179.85   
    74. D(C   6,N   5,C   4,C   3)      0.19 -0.000014    0.04      0.23   
    75. D(H  18,C   6,N   5,H  17)      0.11  0.000002    0.16      0.27   
    76. D(H  18,C   6,N   5,C   4)    179.77  0.000039   -0.01    179.75   
    77. D(N   7,C   6,N   5,H  17)   -179.84 -0.000029    0.14   -179.71   
    78. D(N   7,C   6,N   5,C   4)     -0.19  0.000008   -0.03     -0.22   
    79. D(H  19,N   7,C   3,C   4)   -176.86 -0.000012   -0.03   -176.89   
    80. D(H  19,N   7,C   3,C   2)      3.39 -0.000031    0.07      3.46   
    81. D(C   6,N   7,C   3,C   4)      0.01 -0.000008    0.01      0.02   
    82. D(C   3,N   7,C   6,N   5)      0.11 -0.000000    0.02      0.13   
    83. D(C   6,N   7,C   3,C   2)   -179.74 -0.000027    0.11   -179.63   
    84. D(H  19,N   7,C   6,H  18)     -3.02  0.000018    0.03     -2.98   
    85. D(H  19,N   7,C   6,N   5)    176.93  0.000048    0.06    176.99   
    86. D(C   3,N   7,C   6,H  18)   -179.84 -0.000031   -0.00   -179.85   
    87. D(C   8,O  10,N   7,C   6)   -150.47 -0.000138    0.10   -150.37   
    88. D(C   8,O  10,N   7,C   3)     22.55  0.000079   -0.08     22.47   
    ----------------------------------------------------------------------------

Geometry step timings:
Preparation and reading OPT file:      0.006 s (21.071 %)
Internal coordinates            :      0.000 s ( 0.204 %)
B/P matrices and projection     :      0.001 s ( 4.893 %)
Hessian update/contruction      :      0.009 s (31.031 %)
Making the step                 :      0.001 s ( 4.565 %)
Converting the step to Cartesian:      0.000 s ( 1.044 %)
Storing new data                :      0.003 s ( 8.404 %)
Checking convergence            :      0.000 s ( 0.135 %)
Final printing                  :      0.009 s (28.644 %)
Total time                      :      0.030 s

Time for energy+gradient        :     23.558 s
Time for complete geometry iter :     25.095 s




    ----------------------------------------------------------------------------
                                   ERROR !!!
       The optimization did not converge but reached the maximum 
       number of optimization cycles.
       As a subsequent Frequencies calculation has been requested
       ORCA will abort at this point of the run.
       Please restart the calculation with the lowest energy geometry and/or
       a larger maxiter for the geometry optimization.
    ----------------------------------------------------------------------------



--------------------------------
SUGGESTED CITATIONS FOR THIS RUN
--------------------------------

Below you find a list of papers that are relevant to this ORCA run
We neither can nor want to force you to cite these papers, but we appreciate if you do
You receive ORCA, which is the product of decades of hard work by many enthusiastic individuals, for free
The only thing we kindly ask in return is that you cite our papers,
We deeply appreciate it, if you show your appreciation for ORCA by not just citing the generic ORCA reference.

Please note that relegating all ORCA citations to the supporting information does *not* help us.
SI sections are not indexed - citations you put there will not count into any citation statistics
But we need these citations in order to attract the funding resources that allow us to do what we are doing

Therefore, if you are a happy ORCA user, please consider citing a few of the papers listed below in the main body of your paper

In addition to the list printed below, the program has created the file HNDVDQJCIGZPNO-YFKPBYRVSA-N_68.orcainp.bibtex that contains the list in bibtex format
You can import this file easily into all common literature databanks and citation aid programs


List of essential papers. We consider these as the minimum necessary citations

  1. Neese,F.
     Software update: the ORCA program system, version 5.0
     WIRES Comput. Molec. Sci., 2022 12(1)e1606
     doi.org/10.1002/wcms.1606

List of papers to cite with high priority. The work reported in these papers was absolutely
necessary for this run to complete.
Our perspective: the developers of density functionals and basis sets usually get cited in chemistry papers
Good! But without the algorithms to do something with them, the functionals or basis sets would not do anything.
Hence, in our opinion, the algorithm design and method developments papers are equally worthy of getting cited

  1. Neese,F.
     An improvement of the resolution of the identity approximation for the formation of the Coulomb matrix
     J. Comp. Chem., 2003 24(14)1740-1747
     doi.org/10.1002/jcc.10318
  2. Bykov,D.; Petrenko,T.; Izsak,R.; Kossmann,S.; Becker,U.; Valeev,E.; Neese,F.
     Efficient implementation of the analytic second derivatives of Hartree-Fock and hybrid DFT energies: a detailed analysis of different approximations
     Molec. Phys., 2015 113 1961-1977
     doi.org/10.1080/00268976.2015.1025114
  3. Neese,F.
     The SHARK Integral Generation and Digestion System
     J. Comp. Chem., 2022  1-16
     doi.org/10.1002/jcc.26942
  4. Grimme,S.; Antony,J.; Ehrlich,S.; Krieg,H.
     A consistent and accurate ab initio parametrization of density functional dispersion correction (DFT-D) for the 94 elements H-Pu
     J. Chem. Phys., 2010 132 154104
     doi.org/10.1063/1.3382344
  5. Grimme,S.; Ehrlich,S.; Goerigk,L.
     Effect of the damping function in dispersion corrected density functional theory
     J. Comput. Chem., 2011 32(7)1456-1465
     doi.org/10.1002/jcc.21759

List of suggested additional citations. These are papers that are important in the 'surrounding' of 
of this run, or papers that preceded the highly important papers. If you like your results we are grateful for a citation.

  1. Neese,F.
     The ORCA program system
     WIRES Comput. Molec. Sci., 2012 2(1)73-78
     doi.org/10.1002/wcms.81
  2. Neese,F.
     Software update: the ORCA program system, version 4.0
     WIRES Comput. Molec. Sci., 2018 8(1)1-6
     doi.org/10.1002/wcms.1327
  3. Neese,F.; Wennmohs,F.; Becker,U.; Riplinger,C.
     The ORCA quantum chemistry program package
     J. Chem. Phys., 2020 152 Art. No. L224108
     doi.org/10.1063/5.0004608

List of optional additional citations

  1. Neese,F.
     Approximate second-order SCF convergence for spin unrestricted wavefunctions
     Chem. Phys. Lett., 2000 325(1-3)93-98
     doi.org/10.1016/s0009-2614(00)00662-x

Timings for individual modules:

Sum of individual times          ...     1745.079 sec (=  29.085 min)
Startup calculation              ...      278.900 sec (=   4.648 min)  16.0 %
SCF iterations                   ...     1104.842 sec (=  18.414 min)  63.3 %
Property integrals               ...       82.455 sec (=   1.374 min)   4.7 %
SCF Gradient evaluation          ...      277.179 sec (=   4.620 min)  15.9 %
Geometry relaxation              ...        1.703 sec (=   0.028 min)   0.1 %
                             ****ORCA TERMINATED NORMALLY****
TOTAL RUN TIME: 0 days 0 hours 30 minutes 59 seconds 76 msec
