
                                 *****************
                                 * O   R   C   A *
                                 *****************

                                            #,                                       
                                            ###                                      
                                            ####                                     
                                            #####                                    
                                            ######                                   
                                           ########,                                 
                                     ,,################,,,,,                         
                               ,,#################################,,                 
                          ,,##########################################,,             
                       ,#########################################, ''#####,          
                    ,#############################################,,   '####,        
                  ,##################################################,,,,####,       
                ,###########''''           ''''###############################       
              ,#####''   ,,,,##########,,,,          '''####'''          '####       
            ,##' ,,,,###########################,,,                        '##       
           ' ,,###''''                  '''############,,,                           
         ,,##''                                '''############,,,,        ,,,,,,###''
      ,#''                                            '''#######################'''  
     '                                                          ''''####''''         
             ,#######,   #######,   ,#######,      ##                                
            ,#'     '#,  ##    ##  ,#'     '#,    #''#        ,####,   ,####,        
            ##       ##  ##   ,#'  ##            #'  '#       #'       #'  '#        
            ##       ##  #######   ##           ,######,      #####,   #    #        
            '#,     ,#'  ##    ##  '#,     ,#' ,#      #,     #,   #   #,  ,#        
             '#######'   ##     ##  '#######'  #'      '#     '####' # '####'        



                #########################################################
                #                        -***-                          #
                #          Department of theory and spectroscopy        #
                #                                                       #
                #                      Frank Neese                      #
                #                                                       #
                #     Directorship, Architecture, Infrastructure        #
                #                    SHARK, DRIVERS                     #
                #        Core code/Algorithms in most modules           #
                #                                                       #
                #        Max Planck Institute fuer Kohlenforschung      #
                #                Kaiser Wilhelm Platz 1                 #
                #                 D-45470 Muelheim/Ruhr                 #
                #                      Germany                          #
                #                                                       #
                #                  All rights reserved                  #
                #                        -***-                          #
                #########################################################


                         Program Version 6.0.1  -  RELEASE   -


 With contributions from (in alphabetic order):
[Max-Planck-Institut fuer Kohlenforschung]                               
  Daniel Aravena         : Magnetic Suceptibility                        
  Michael Atanasov       : Ab Initio Ligand Field Theory (pilot matlab implementation)
  Alexander A. Auer      : GIAO ZORA, VPT2 properties, NMR spectrum      
  Ute Becker             : All parallelization in ORCA, NUMFREQ, NUMCALC 
  Giovanni Bistoni       : ED, misc. LED, open-shell LED, HFLD           
  Martin Brehm           : Molecular dynamics                            
  Dmytro Bykov           : pre 5.0 version of the SCF Hessian            
  Marcos Casanova-Páez   : Triplet and SCS-CIS(D). UHF-(DLPNO)-IP/EA/STEOM-CCSD. UHF-CVS-IP/STEOM-CCSD   
  Vijay G. Chilkuri      : MRCI spin determinant printing, contributions to CSF-ICE 
  Pauline Colinet        : FMM embedding                                 
  Dipayan Datta          : RHF DLPNO-CCSD density                        
  Achintya Kumar Dutta   : EOM-CC, STEOM-CC                              
  Nicolas Foglia         : Exact transition moments, OPA infrastructure, MCD improvements    
  Dmitry Ganyushin       : Spin-Orbit,Spin-Spin,Magnetic field MRCI      
  Miquel Garcia-Rates    : C-PCM and meta-GGA Hessian, CCSD/C-PCM, Gaussian charge scheme 
  Tiago L. C. Gouveia    : GS-ROHF, GS-ROCIS                             
  Yang Guo               : DLPNO-NEVPT2, F12-NEVPT2, CIM, IAO-localization        
  Andreas Hansen         : Spin unrestricted coupled pair/coupled cluster methods 
  Ingolf Harden          : AUTO-CI MPn and infrastructure                
  Benjamin Helmich-Paris : MC-RPA, TRAH-(SCF,CASSCF), AVAS, COSX integrals, SCF dyn. polar. 
  Lee Huntington         : MR-EOM, pCC                                   
  Robert Izsak           : Overlap fitted RIJCOSX, COSX-SCS-MP3, EOM     
  Riya Kayal             : Wick's Theorem for AUTO-CI, AUTO-CI UHF-CCSDT 
  Emily Kempfer          : AUTO-CI, RHF CISDT and CCSDT                  
  Christian Kollmar      : KDIIS, OOCD, Brueckner-CCSD(T), CCSD density, CASPT2, CASPT2-K, improved NEVPT2 
  Axel Koslowski         : Symmetry handling                             
  Simone Kossmann        : meta-GGA functionals, TD-DFT gradient, OOMP2, (MP2 Hessian; deprecated post 5.0) 
  Lucas Lang             : DCDCAS                                        
  Marvin Lechner         : AUTO-CI (C++ implementation), FIC-MRCC        
  Spencer Leger          : CASSCF response                               
  Dagmar Lenk            : GEPOL surface, SMD, ORCA-2-JSON               
  Dimitrios Liakos       : Extrapolation schemes; Compound Job, initial MDCI parallelization 
  Dimitrios Manganas     : Further ROCIS development; embedding schemes. LFT, Crystal Embedding 
  Dimitrios Pantazis     : SARC Basis sets                               
  Anastasios Papadopoulos: AUTO-CI, single reference methods and gradients 
  Taras Petrenko         : pre 6.0 DFT Hessian and TD-DFT gradient, (ASA, deprecated), ECA, 1-Electron XAS/XES, NRVS 
  Peter Pinski           : DLPNO-MP2, DLPNO-MP2 Gradient                 
  Christoph Reimann      : Effective Core Potentials                     
  Marius Retegan         : Local ZFS, SOC                                
  Christoph Riplinger    : Optimizer, TS searches, QM/MM, DLPNO-CCSD(T), (RO)-DLPNO pert. Triples 
  Michael Roemelt        : Original ROCIS implementation                 
  Masaaki Saitow         : Open-shell DLPNO-CCSD energy and density      
  Barbara Sandhoefer     : DKH picture change effects                    
  Kantharuban Sivalingam : CASSCF convergence/infrastructure, NEVPT2 and variants, FIC-MRCI 
  Bernardo de Souza      : ESD, SOC TD-DFT                               
  Georgi L. Stoychev     : AutoAux, RI-MP2 NMR, DLPNO-MP2 response, X2C  
  Van Anh Tran           : RI-MP2 g-tensors                              
  Willem Van den Heuvel  : Paramagnetic NMR                              
  Zikuan Wang            : NOTCH, Electric field optimization            
  Frank Wennmohs         : Technical directorship and infrastructure     
  Hang Xu                : AUTO-CI-Response properties                   
                                                                         
[FACCTs GmbH]                                                            
  Markus Bursch, Miquel Garcia-Rates, Christoph Riplinger, Bernardo de Souza, Georgi L. Stoychev 
                                                                 
  APM, Basis sets (HGBS, AHGBS, def-TZVP (Ac-Lr), def2-XVPD (La-Lu)), CI-OPT, improved COSX, DLPNO-Multilevel,           
  DOCKER, DRACO, updates on ESD, GOAT, IRC, LR-CPCM, MBIS, meta-GGA TD-DFT gradient, ML-optimized integration grids, 
  MM, NACMEs, nearIR, NEB, NEB-TS, NL-DFT gradient (VV10), 2- and 3-layer-ONIOM, interface openCOSMO-RS, QMMM,   
  Crystal-QMMM, SF, symmetry and pop. for TD-DFT, r2SCAN hybrids, SOLVATOR                                   
                                                                         
[Other institutions]                                                     
  V. Asgeirsson          : NEB                                           
  Christoph Bannwarth    : sTDA-DFT, sTD-DFT, PBEh-3c, B97-3c, D3        
  Sebastian Ehlert       : rSCAN, r2SCAN, r2SCAN-3c, D4, dhf basis sets  
  Marvin Friede          : D4 for Fr, Ra, Ac-Lr                          
  Lars Goerigk           : TD-DFT with DH, B97 family of functionals     
  Stefan Grimme          : VdW corrections, initial TS optimization, DFT functionals, gCP, sTDA/sTD-DF 
  Waldemar Hujo          : DFT-NL                                        
  H. Jonsson             : NEB                                           
  Holger Kruse           : gCP                                           
  Marcel Mueller         : wB97X-3c, vDZP basis set                      
  Hagen Neugebauer       : wr2SCAN                                       
  Tobias Risthaus        : range-separated hybrid DFT                    
  Lukas Wittmann         : regularized MP2, r2SCAN double-hybrids, wr2SCAN        
                                                                         
We gratefully acknowledge several colleagues who have allowed us to      
interface, adapt or use parts of their codes:                            
  Ed Valeev, F. Pavosevic, A. Kumar             : LibInt (2-el integral package), F12 methods 
  Garnet Chan, S. Sharma, J. Yang, R. Olivares  : DMRG                   
  Ulf Ekstrom                                   : XCFun DFT Library      
  Mihaly Kallay                                 : mrcc  (arbitrary order and MRCC methods)
  Frank Weinhold                                : gennbo (NPA and NBO analysis)           
  Simon Mueller                                 : openCOSMO-RS                            
  Christopher J. Cramer and Donald G. Truhlar   : smd solvation model                     
  S Lehtola, MJT Oliveira, MAL Marques          : LibXC Library                           
  Liviu Ungur et al                             : ANISO software                          


 Your calculation uses the libint2 library for the computation of 2-el integrals
 For citations please refer to: http://libint.valeyev.net

 Your ORCA version has been built with support for libXC version: 6.2.2
 For citations please refer to: https://libxc.gitlab.io

 This ORCA versions uses:
   CBLAS   interface :  Fast vector & matrix operations
   LAPACKE interface :  Fast linear algebra routines
   SCALAPACK package :  Parallel linear algebra routines
   Shared memory     :  Shared parallel matrices
   BLAS/LAPACK       :  OpenBLAS 0.3.27  USE64BITINT DYNAMIC_ARCH NO_AFFINITY SkylakeX SINGLE_THREADED
        Core in use  :  SkylakeX
   Copyright (c) 2011-2014, The OpenBLAS Project


NOTE: MaxCore=700 MB was set to SCF,MP2,MDCI,CIPSI,MRCI and CIS
      => If you want to overwrite this, your respective input block should be placed after the MaxCore statement
Your calculation utilizes the atom-pairwise dispersion correction
with the Becke-Johnson damping scheme (D3BJ)


Your calculation employs the composite approach B97-3c by Grimme and coworkers.
For the correct reference, please check the publication list of the Grimme group:
http://www.thch.uni-bonn.de/tc/index.php?section=publikationen&subsection=grimme#2017
   

XCFun DFT library Copyright 2009-2010 Ulf Ekstrom and contributors.
See http://admol.org/xcfun for more information.
This is free software; see the source code for copying conditions.
There is ABSOLUTELY NO WARRANTY; not even for MERCHANTABILITY or FITNESS FOR A PARTICULAR PURPOSE.
For details see the documentation.
Scientific users of this library should cite U. Ekstrom, L. Visscher, R. Bast, A. J. Thorvaldsen and K. Ruud;
J.Chem.Theor.Comp. 2010, DOI: 10.1021/ct100117s
XCFun Version 0.99 

================================================================================

----- Orbital basis set information -----
Your calculation utilizes the basis: def2-mTZVP
----- AuxJ basis set information -----
Your calculation utilizes the basis: def2-mTZVP/J
================================================================================
                                        WARNINGS
                       Please study these warnings very carefully!
================================================================================


WARNING: your system is open-shell and RHF/RKS was chosen
  ===> : WILL SWITCH to UHF/UKS


WARNING: Geometry Optimization
  ===> : Switching off AutoStart
         For restart on a previous wavefunction, please use MOREAD

================================================================================
                                       INPUT FILE
================================================================================
NAME = HNDVDQJCIGZPNO-YFKPBYRVSA-N_59.orcainp
|  1> # Optimize file: 
|  2> # HNDVDQJCIGZPNO-YFKPBYRVSA-N_59.out
|  3> %maxcore 700
|  4> %pal nprocs 16 end
|  5> ! OPT FREQ B97-3c defgrid3 SlowConv xyzfile
|  6> * xyz 1 2
|  7>    N        0.99923        -1.09083         1.45873
|  8>    C        1.38012        -0.90869         0.06443
|  9>    C        0.16300        -1.10759        -0.86023
| 10>    C       -1.09114        -0.41839        -0.41753
| 11>    C       -2.37265        -0.90312        -0.34518
| 12>    N       -3.14064         0.14123         0.11436
| 13>    C       -2.32207         1.19899         0.31066
| 14>    N       -1.08557         0.89177        -0.00180
| 15>    C        2.18259         0.38915        -0.17389
| 16>    O        3.37719         0.35132        -0.32351
| 17>    O        1.52840         1.54237        -0.13432
| 18>    H        0.43604        -0.30438         1.77967
| 19>    H        1.83129        -1.11183         2.04463
| 20>    H        2.10418        -1.69571        -0.18814
| 21>    H        0.42825        -0.78252        -1.88046
| 22>    H       -0.04577        -2.18544        -0.91333
| 23>    H       -2.78935        -1.88010        -0.57051
| 24>    H       -4.13740         0.12134         0.28257
| 25>    H       -2.67007         2.16183         0.67993
| 26>    H        0.54784         1.42997        -0.04039
| 27> *
| 28> 
| 29>                          ****END OF INPUT****
================================================================================

                       *****************************
                       * Geometry Optimization Run *
                       *****************************

Geometry optimization settings:
Update method            Update   .... BFGS
Choice of coordinates    CoordSys .... (2022) Redundant Internals
Initial Hessian          InHess   .... Almloef's Model
Max. no of cycles        MaxIter  .... 60

Convergence Tolerances:
Energy Change            TolE     ....  5.0000e-06 Eh
Max. Gradient            TolMAXG  ....  3.0000e-04 Eh/bohr
RMS Gradient             TolRMSG  ....  1.0000e-04 Eh/bohr
Max. Displacement        TolMAXD  ....  4.0000e-03 bohr
RMS Displacement         TolRMSD  ....  2.0000e-03 bohr
Strict Convergence                .... False

------------------------------------------------------------------------------
                        ORCA OPTIMIZATION COORDINATE SETUP
------------------------------------------------------------------------------

The optimization will be done in redundant internal coordinates (2022)
Making redundant internal coordinates   ...  (2022 redundants) done
Evaluating the initial hessian          ...  (Almloef) done
Evaluating the coordinates              ...  done
Calculating the B-matrix                .... done
Calculating the G-matrix                .... done
Diagonalizing the G-matrix              .... done
Small eigenvalue found = 2.128e-02
The first mode is                       ....   38
The number of degrees of freedom        ....   54

    -----------------------------------------------------------------
                    Redundant Internal Coordinates


    -----------------------------------------------------------------
         Definition                    Initial Value    Approx d2E/dq
    -----------------------------------------------------------------
      1. B(C   1,N   0)                  1.4568         0.437793   
      2. B(C   2,C   1)                  1.5414         0.358242   
      3. B(C   3,C   2)                  1.4979         0.420257   
      4. B(C   4,C   3)                  1.3720         0.667435   
      5. B(N   5,C   4)                  1.3754         0.590488   
      6. B(C   6,N   5)                  1.3518         0.643831   
      7. B(N   7,C   3)                  1.3745         0.592282   
      8. B(N   7,C   6)                  1.3118         0.745694   
      9. B(C   8,C   1)                  1.5444         0.354338   
     10. B(O   9,C   8)                  1.2045         1.106076   
     11. B(O  10,C   8)                  1.3264         0.706772   
     12. B(H  11,N   0)                  1.0192         0.418388   
     13. B(H  12,N   0)                  1.0179         0.420389   
     14. B(H  13,C   1)                  1.0988         0.348590   
     15. B(H  14,C   2)                  1.1031         0.343142   
     16. B(H  15,C   2)                  1.0992         0.348177   
     17. B(H  16,C   4)                  1.0858         0.365736   
     18. B(H  17,N   5)                  1.0110         0.431043   
     19. B(H  18,C   6)                  1.0884         0.362277   
     20. B(H  19,N   7)                  1.7202         0.031847   
     21. B(H  19,O  10)                  0.9914         0.463239   
     22. A(C   1,N   0,H  12)          109.8627         0.336620   
     23. A(H  11,N   0,H  12)          106.6416         0.300246   
     24. A(C   1,N   0,H  11)          110.4502         0.336353   
     25. A(N   0,C   1,C   8)          112.8680         0.367686   
     26. A(C   8,C   1,H  13)          102.9461         0.319817   
     27. A(N   0,C   1,H  13)          107.6210         0.329142   
     28. A(C   2,C   1,H  13)          106.8578         0.320390   
     29. A(C   2,C   1,C   8)          115.2238         0.357529   
     30. A(N   0,C   1,C   2)          110.5825         0.368378   
     31. A(C   1,C   2,H  15)          107.7877         0.320328   
     32. A(C   3,C   2,H  14)          109.8198         0.328050   
     33. A(C   1,C   2,H  14)          109.0813         0.319566   
     34. A(H  14,C   2,H  15)          106.8553         0.287132   
     35. A(C   1,C   2,C   3)          115.1152         0.368101   
     36. A(C   3,C   2,H  15)          107.8442         0.328840   
     37. A(C   2,C   3,C   4)          129.4227         0.410311   
     38. A(C   2,C   3,N   7)          121.6370         0.399167   
     39. A(C   4,C   3,N   7)          108.9402         0.433401   
     40. A(N   5,C   4,H  16)          122.5666         0.348776   
     41. A(C   3,C   4,H  16)          131.7140         0.358294   
     42. A(C   3,C   4,N   5)          105.7180         0.433165   
     43. A(C   4,N   5,H  17)          126.2383         0.355476   
     44. A(C   4,N   5,C   6)          107.7306         0.427563   
     45. A(C   6,N   5,H  17)          126.0296         0.360743   
     46. A(N   5,C   6,H  18)          123.2215         0.353342   
     47. A(N   7,C   6,H  18)          126.1127         0.362277   
     48. A(N   5,C   6,N   7)          110.6658         0.445926   
     49. A(C   3,N   7,C   6)          106.9440         0.439247   
     50. A(O   9,C   8,O  10)          121.3415         0.487567   
     51. A(C   1,C   8,O  10)          118.0179         0.399596   
     52. A(C   1,C   8,O   9)          120.5371         0.432732   
     53. A(C   8,O  10,H  19)          113.0815         0.371103   
     54. D(C   8,C   1,N   0,H  11)     58.6996         0.016342   
     55. D(C   2,C   1,N   0,H  11)    -72.0251         0.016342   
     56. D(H  13,C   1,N   0,H  11)    171.5966         0.016342   
     57. D(C   8,C   1,N   0,H  12)    -58.6676         0.016342   
     58. D(C   2,C   1,N   0,H  12)    170.6077         0.016342   
     59. D(C   3,C   2,C   1,N   0)     45.5651         0.010303   
     60. D(H  14,C   2,C   1,H  13)    -73.6395         0.010303   
     61. D(H  14,C   2,C   1,C   8)     40.0333         0.010303   
     62. D(H  14,C   2,C   1,N   0)    169.5095         0.010303   
     63. D(C   3,C   2,C   1,C   8)    -83.9111         0.010303   
     64. D(C   3,C   2,C   1,H  13)    162.4161         0.010303   
     65. D(C   4,C   3,C   2,H  15)    -13.1994         0.013059   
     66. D(C   4,C   3,C   2,H  14)    102.8925         0.013059   
     67. D(N   7,C   3,C   2,C   1)     46.5398         0.013059   
     68. D(C   4,C   3,C   2,C   1)   -133.5534         0.013059   
     69. D(N   7,C   3,C   2,H  14)    -77.0143         0.013059   
     70. D(H  16,C   4,C   3,N   7)   -179.2191         0.031136   
     71. D(H  16,C   4,C   3,C   2)      0.8648         0.031136   
     72. D(N   5,C   4,C   3,N   7)      0.3409         0.031136   
     73. D(N   5,C   4,C   3,C   2)   -179.5752         0.031136   
     74. D(H  17,N   5,C   4,H  16)     -0.3508         0.028033   
     75. D(H  17,N   5,C   4,C   3)   -179.9611         0.028033   
     76. D(C   6,N   5,C   4,H  16)    179.2224         0.028033   
     77. D(C   6,N   5,C   4,C   3)     -0.3879         0.028033   
     78. D(H  18,C   6,N   5,H  17)     -0.0526         0.033773   
     79. D(H  18,C   6,N   5,C   4)   -179.6269         0.033773   
     80. D(N   7,C   6,N   5,H  17)    179.8777         0.033773   
     81. D(N   7,C   6,N   5,C   4)      0.3033         0.033773   
     82. D(C   3,N   7,C   6,N   5)     -0.0870         0.046635   
     83. D(C   6,N   7,C   3,C   4)     -0.1641         0.028215   
     84. D(C   6,N   7,C   3,C   2)    179.7598         0.028215   
     85. D(C   3,N   7,C   6,H  18)    179.8407         0.046635   
     86. D(O  10,C   8,C   1,C   2)     54.8719         0.009466   
     87. D(O  10,C   8,C   1,N   0)    -73.4761         0.009466   
     88. D(O   9,C   8,C   1,H  13)    -12.8529         0.009466   
     89. D(O   9,C   8,C   1,C   2)   -128.7792         0.009466   
     90. D(O   9,C   8,C   1,N   0)    102.8728         0.009466   
     91. D(H  19,O  10,C   8,O   9)    177.8665         0.037478   
     92. D(H  19,O  10,C   8,C   1)     -5.8155         0.037478   
    -----------------------------------------------------------------

Number of atoms                         .... 20
Number of degrees of freedom            .... 92


         *************************************************************
         *                GEOMETRY OPTIMIZATION CYCLE   1            *
         *************************************************************
---------------------------------
CARTESIAN COORDINATES (ANGSTROEM)
---------------------------------
  N      0.999230   -1.090830    1.458730
  C      1.380120   -0.908690    0.064430
  C      0.163000   -1.107590   -0.860230
  C     -1.091140   -0.418390   -0.417530
  C     -2.372650   -0.903120   -0.345180
  N     -3.140640    0.141230    0.114360
  C     -2.322070    1.198990    0.310660
  N     -1.085570    0.891770   -0.001800
  C      2.182590    0.389150   -0.173890
  O      3.377190    0.351320   -0.323510
  O      1.528400    1.542370   -0.134320
  H      0.436040   -0.304380    1.779670
  H      1.831290   -1.111830    2.044630
  H      2.104180   -1.695710   -0.188140
  H      0.428250   -0.782520   -1.880460
  H     -0.045770   -2.185440   -0.913330
  H     -2.789350   -1.880100   -0.570510
  H     -4.137400    0.121340    0.282570
  H     -2.670070    2.161830    0.679930
  H      0.547840    1.429970   -0.040390

----------------------------
CARTESIAN COORDINATES (A.U.)
----------------------------
  NO LB      ZA    FRAG     MASS         X           Y           Z
   0 N     7.0000    0    14.007    1.888271   -2.061370    2.756600
   1 C     6.0000    0    12.011    2.608049   -1.717175    0.121755
   2 C     6.0000    0    12.011    0.308025   -2.093042   -1.625599
   3 C     6.0000    0    12.011   -2.061956   -0.790643   -0.789017
   4 C     6.0000    0    12.011   -4.483659   -1.706649   -0.652296
   5 N     7.0000    0    14.007   -5.934949    0.266886    0.216109
   6 C     6.0000    0    12.011   -4.388076    2.265763    0.587062
   7 N     7.0000    0    14.007   -2.051430    1.685201   -0.003402
   8 C     6.0000    0    12.011    4.124497    0.735387   -0.328604
   9 O     8.0000    0    15.999    6.381964    0.663899   -0.611345
  10 O     8.0000    0    15.999    2.888257    2.914657   -0.253828
  11 H     1.0000    0     1.008    0.823996   -0.575195    3.363089
  12 H     1.0000    0     1.008    3.460637   -2.101054    3.863791
  13 H     1.0000    0     1.008    3.976324   -3.204428   -0.355533
  14 H     1.0000    0     1.008    0.809275   -1.478748   -3.553554
  15 H     1.0000    0     1.008   -0.086493   -4.129883   -1.725944
  16 H     1.0000    0     1.008   -5.271108   -3.552874   -1.078108
  17 H     1.0000    0     1.008   -7.818553    0.229299    0.533980
  18 H     1.0000    0     1.008   -5.045701    4.085267    1.284881
  19 H     1.0000    0     1.008    1.035268    2.702252   -0.076326

--------------------------------
INTERNAL COORDINATES (ANGSTROEM)
--------------------------------
 N      0   0   0     0.000000000000     0.00000000     0.00000000
 C      1   0   0     1.456820051242     0.00000000     0.00000000
 C      2   1   0     1.541407934325   110.58248874     0.00000000
 C      3   2   1     1.497947619111   115.11522182    45.56514918
 C      4   3   2     1.372029728359   129.42273360   226.44659479
 N      5   4   3     1.375373612587   105.71795589   180.42483540
 C      6   5   4     1.351830889017   107.73058603   359.61208745
 N      7   6   5     1.311848935663   110.66578797     0.30331895
 C      2   1   3     1.544390879570   112.86796718   130.72463613
 O      9   2   1     1.204527464735   120.53707122   102.87279238
 O      9   2   1     1.326441370510   118.01785904   286.52385629
 H      1   2   3     1.019160959908   110.45020799   287.97493382
 H      1   2   3     1.017862295991   109.86272552   170.60772535
 H      2   1   3     1.098842558741   107.62099956   243.62161750
 H      3   2   1     1.103130690490   109.08129541   169.50954191
 H      3   2   1     1.099165658761   107.78770454   285.18016243
 H      5   4   3     1.085772729120   131.71402093     0.86478128
 H      6   5   4     1.011049313238   126.23830246   180.03888453
 H      7   6   5     1.088358947453   123.22148866   180.37306930
 H     11   9   2     0.991440627824   113.08151193   354.18454233

---------------------------
INTERNAL COORDINATES (A.U.)
---------------------------
 N      0   0   0     0.000000000000     0.00000000     0.00000000
 C      1   0   0     2.752990923252     0.00000000     0.00000000
 C      2   1   0     2.912838856527   110.58248874     0.00000000
 C      3   2   1     2.830710763079   115.11522182    45.56514918
 C      4   3   2     2.592760434196   129.42273360   226.44659479
 N      5   4   3     2.599079459611   105.71795589   180.42483540
 C      6   5   4     2.554590159617   107.73058603   359.61208745
 N      7   6   5     2.479035217479   110.66578797     0.30331895
 C      2   1   3     2.918475806114   112.86796718   130.72463613
 O      9   2   1     2.276227029135   120.53707122   102.87279238
 O      9   2   1     2.506610922967   118.01785904   286.52385629
 H      1   2   3     1.925935100610   110.45020799   287.97493382
 H      1   2   3     1.923480981467   109.86272552   170.60772535
 H      2   1   3     2.076511500317   107.62099956   243.62161750
 H      3   2   1     2.084614894949   109.08129541   169.50954191
 H      3   2   1     2.077122070870   107.78770454   285.18016243
 H      5   4   3     2.051813101716   131.71402093     0.86478128
 H      6   5   4     1.910606309910   126.23830246   180.03888453
 H      7   6   5     2.056700346088   123.22148866   180.37306930
 H     11   9   2     1.873551264630   113.08151193   354.18454233

---------------------
BASIS SET INFORMATION
---------------------
There are 4 groups of distinct atoms

 Group   1 Type N   : 11s6p1d contracted to 5s3p1d pattern {62111/411/1}
 Group   2 Type C   : 11s6p1d contracted to 5s3p1d pattern {62111/411/1}
 Group   3 Type O   : 11s6p2d contracted to 5s3p2d pattern {62111/411/11}
 Group   4 Type H   : 5s contracted to 3s pattern {311}

Atom   0N    basis set group =>   1
Atom   1C    basis set group =>   2
Atom   2C    basis set group =>   2
Atom   3C    basis set group =>   2
Atom   4C    basis set group =>   2
Atom   5N    basis set group =>   1
Atom   6C    basis set group =>   2
Atom   7N    basis set group =>   1
Atom   8C    basis set group =>   2
Atom   9O    basis set group =>   3
Atom  10O    basis set group =>   3
Atom  11H    basis set group =>   4
Atom  12H    basis set group =>   4
Atom  13H    basis set group =>   4
Atom  14H    basis set group =>   4
Atom  15H    basis set group =>   4
Atom  16H    basis set group =>   4
Atom  17H    basis set group =>   4
Atom  18H    basis set group =>   4
Atom  19H    basis set group =>   4
---------------------------------
AUXILIARY/J BASIS SET INFORMATION
---------------------------------
There are 4 groups of distinct atoms

 Group   1 Type N   : 8s3p3d contracted to 6s3p3d pattern {311111/111/111}
 Group   2 Type C   : 8s3p3d contracted to 6s3p3d pattern {311111/111/111}
 Group   3 Type O   : 8s3p3d contracted to 6s3p3d pattern {311111/111/111}
 Group   4 Type H   : 5s2p contracted to 3s1p pattern {311/2}

Atom   0N    basis set group =>   1
Atom   1C    basis set group =>   2
Atom   2C    basis set group =>   2
Atom   3C    basis set group =>   2
Atom   4C    basis set group =>   2
Atom   5N    basis set group =>   1
Atom   6C    basis set group =>   2
Atom   7N    basis set group =>   1
Atom   8C    basis set group =>   2
Atom   9O    basis set group =>   3
Atom  10O    basis set group =>   3
Atom  11H    basis set group =>   4
Atom  12H    basis set group =>   4
Atom  13H    basis set group =>   4
Atom  14H    basis set group =>   4
Atom  15H    basis set group =>   4
Atom  16H    basis set group =>   4
Atom  17H    basis set group =>   4
Atom  18H    basis set group =>   4
Atom  19H    basis set group =>   4


           ************************************************************
           *        Program running with 16 parallel MPI-processes    *
           *              working on a common directory               *
           ************************************************************
------------------------------------------------------------------------------
                             ORCA STARTUP CALCULATIONS
                           -- RI-GTO INTEGRALS CHOSEN --
------------------------------------------------------------------------------
------------------------------------------------------------------------------
                   ___                                                        
                  /   \      - P O W E R E D   B Y -                         
                 /     \                                                     
                 |  |  |   _    _      __       _____    __    __             
                 |  |  |  | |  | |    /  \     |  _  \  |  |  /  |          
                  \  \/   | |  | |   /    \    | | | |  |  | /  /          
                 / \  \   | |__| |  /  /\  \   | |_| |  |  |/  /          
                |  |  |   |  __  | /  /__\  \  |    /   |      \           
                |  |  |   | |  | | |   __   |  |    \   |  |\   \          
                \     /   | |  | | |  |  |  |  | |\  \  |  | \   \       
                 \___/    |_|  |_| |__|  |__|  |_| \__\ |__|  \__/        
                                                                              
                      - O R C A' S   B I G   F R I E N D -                    
                                      &                                       
                       - I N T E G R A L  F E E D E R -                       
                                                                              
 v1 FN, 2020, v2 2021, v3 2022-2024                                           
------------------------------------------------------------------------------


----------------------
SHARK INTEGRAL PACKAGE
----------------------

Number of atoms                             ...     20
Number of basis functions                   ...    246
Number of shells                            ...    128
Maximum angular momentum                    ...      2
Integral batch strategy                     ... SHARK/LIBINT Hybrid
RI-J (if used) integral strategy            ... SPLIT-RIJ (Revised 2003 algorithm where possible)
Printlevel                                  ...      1
Contraction scheme used                     ... SEGMENTED contraction
Prescreening option                         ... SCHWARTZ
   Thresh                                   ... 2.500e-11
   Tcut                                     ... 2.500e-12
   Tpresel                                  ... 2.500e-12 
Coulomb Range Separation                    ... NOT USED
Exchange Range Separation                   ... NOT USED
Multipole approximations                    ... NOT USED
Finite Nucleus Model                        ... NOT USED
CABS basis                                  ... NOT available
Auxiliary Coulomb fitting basis             ... AVAILABLE
   # of basis functions in Aux-J            ...    384
   # of shells in Aux-J                     ...    168
   Maximum angular momentum in Aux-J        ...      2
Auxiliary J/K fitting basis                 ... NOT available
Auxiliary Correlation fitting basis         ... NOT available
Auxiliary 'external' fitting basis          ... NOT available

Checking pre-screening integrals            ... done (  0.0 sec) Dimension = 128
Check shell pair data                       ... done (  0.0 sec)
Shell pair information
Shell pair cut-off parameter TPreSel        ...   2.5e-12
Total number of shell pairs                 ...      8256
Shell pairs after pre-screening             ...      7284
Total number of primitive shell pairs       ...     30404
Primitive shell pairs kept                  ...     18433
          la=0 lb=0:   2845 shell pairs
          la=1 lb=0:   2480 shell pairs
          la=1 lb=1:    541 shell pairs
          la=2 lb=0:    927 shell pairs
          la=2 lb=1:    405 shell pairs
          la=2 lb=2:     86 shell pairs

Calculating one electron integrals          ... done (  0.0 sec)
Calculating RI/J V-Matrix + Cholesky decomp.... done (  0.0 sec)
Calculating Nuclear repulsion               ... done (  0.0 sec) ENN=    626.157004372545 Eh

Diagonalization of the overlap matrix:
Smallest eigenvalue                        ... 8.225e-05
Time for diagonalization                   ...    0.009 sec
Threshold for overlap eigenvalues          ... 1.000e-07
Number of eigenvalues below threshold      ... 0
Time for construction of square roots      ...    0.014 sec
Total time needed                          ...    0.033 sec

-------------------
DFT GRID GENERATION
-------------------

General Integration Accuracy     IntAcc      ... 4.959
Radial Grid Type                 RadialGrid  ... OptM3 with GC (2021)
Angular Grid (max. ang.)         AngularGrid ... 6 (Lebedev-590)
Angular grid pruning method      GridPruning ... 4 (adaptive)
Weight generation scheme         WeightScheme... mBecke (2022)
Basis function cutoff            BFCut       ... 1.0000e-11
Integration weight cutoff        WCut        ... 1.0000e-14
Partially contracted basis set               ... off
Rotationally invariant grid construction     ... off
Angular grids for H and He will be reduced by one unit
Diffuse basis detected: some atoms will have their outermost
                        angular grid increased by 1.

Total number of grid points                  ...   235743
Total number of batches                      ...     3693
Average number of points per batch           ...       63
Average number of grid points per atom       ...    11787
Initializing property integral containers    ... done (  0.0 sec)

SHARK setup successfully completed in   3.4 seconds

Maximum memory used throughout the entire STARTUP-calculation: 52.4 MB


           ************************************************************
           *        Program running with 16 parallel MPI-processes    *
           *              working on a common directory               *
           ************************************************************
-------------------------------------------------------------------------------
                                 ORCA GUESS
                   Start orbitals & Density for SCF / CASSCF
-------------------------------------------------------------------------------

------------
SCF SETTINGS
------------
Hamiltonian:
 Density Functional     Method          .... DFT(GTOs)
 Exchange Functional    Exchange        .... B973C
 Correlation Functional Correlation     .... B973C
 Gradients option       PostSCFGGA      .... off
 RI-approximation to the Coulomb term is turned on
   Number of AuxJ basis functions       .... 384


General Settings:
 Integral files         IntName         .... HNDVDQJCIGZPNO-YFKPBYRVSA-N_59.orcainp
 Hartree-Fock type      HFTyp           .... UHF
 Total Charge           Charge          ....    1
 Multiplicity           Mult            ....    2
 Number of Electrons    NEL             ....   81
 Basis Dimension        Dim             ....  246
 Nuclear Repulsion      ENuc            ....    626.1570043725 Eh

Convergence Acceleration:
 AO-DIIS                CNVDIIS         .... on
   Start iteration      DIISMaxIt       ....     0
   Startup error        DIISStart       ....  0.200000
   # of expansion vecs  DIISMaxEq       ....     5
   Bias factor          DIISBfac        ....   1.050
   Max. coefficient     DIISMaxC        ....  10.000
 MO-DIIS                CNVKDIIS        .... off
 Trust-Rad. Augm. Hess. CNVTRAH         .... auto
   Auto Start mean grad. ratio tolernc. ....  1.125000
   Auto Start start iteration           ....    50
   Auto Start num. interpolation iter.  ....    10
   Max. Number of Micro iterations      ....    24
   Max. Number of Macro iterations      .... Maxiter - #DIIS iter
   Number of Davidson start vectors     ....     2
   Converg. threshold    (grad. norm)   ....   1.000e-05
   Grad. Scal. Fac. for Micro threshold ....   0.100
   Minimum threshold for Micro iter.    ....   1.000e-02
   NR start threshold (gradient norm)   ....   1.000e-04
   Initial trust radius                 ....   0.400
   Minimum AH scaling param. (alpha)    ....   1.000
   Maximum AH scaling param. (alpha)    .... 1000.000
   Quad. conv. algorithm                .... NR
   White noise on init. David. guess    .... on
   Maximum white noise                  ....   0.010
   Pseudo random numbers                .... off
   Inactive MOs                         .... canonical
   Orbital update algorithm             .... Taylor
   Preconditioner                       .... Diag
   Full preconditioner red. dimension   ....   250
   COSX micro iterations for RIJONX calc.... off
 SOSCF                  CNVSOSCF        .... on
   Start iteration      SOSCFMaxIt      ....   150
   Startup grad/error   SOSCFStart      ....  0.001000
   Hessian update       SOSCFHessUp     .... L-BFGS
 Level Shifting         CNVShift        .... on
   Level shift para.    LevelShift      ....    0.2500
   Turn off err/grad.   ShiftErr        ....    0.0000
 Zerner damping         CNVZerner       .... off
 Static damping         CNVDamp         .... on
   Fraction old density DampFac         ....    0.8500
   Max. Damping (<1)    DampMax         ....    0.9800
   Min. Damping (>=0)   DampMin         ....    0.0000
   Turn off err/grad.   DampErr         ....    0.0300

SCF Procedure:
 Maximum # iterations   MaxIter         ....   125
 SCF integral mode      SCFMode         .... Direct
   Integral package                     .... SHARK and LIBINT hybrid scheme
 Reset frequency        DirectResetFreq ....    20
 Integral Threshold     Thresh          ....  2.500e-11 Eh
 Primitive CutOff       TCut            ....  2.500e-12 Eh

Convergence Tolerance:
 Convergence Check Mode ConvCheckMode   .... Total+1el-Energy
 Convergence forced     ConvForced      .... 0
 Energy Change          TolE            ....  1.000e-08 Eh
 1-El. energy change                    ....  1.000e-05 Eh
 Orbital Gradient       TolG            ....  1.000e-05
 Orbital Rotation angle TolX            ....  1.000e-05
 DIIS Error             TolErr          ....  5.000e-07

--------------------------------
INITIAL GUESS: MINIMAL BASIS EHT
--------------------------------
The minimal basis has 64 functions
EHT matrix was diagonalized
Basis set overlap was calculated now projecting the orbitals
Using GuessMode=FMatrix for the initial guess
C*T matrix was formed
Effective Fockian was calculated
Effective Fockian was diagonalized
Initial density was built
                      ------------------
                      INITIAL GUESS DONE
                      ------------------
             **** ENERGY FILE WAS UPDATED (HNDVDQJCIGZPNO-YFKPBYRVSA-N_59.orcainp.en.tmp) ****
Finished Guess after   0.9 sec
Maximum memory used throughout the entire GUESS-calculation: 13.6 MB


           ************************************************************
           *        Program running with 16 parallel MPI-processes    *
           *              working on a common directory               *
           ************************************************************

-------------------------------------------------------------------------------------------
                                      ORCA LEAN-SCF
                              memory conserving SCF solver
-------------------------------------------------------------------------------------------

----------------------------------------D-I-I-S--------------------------------------------
Iteration    Energy (Eh)           Delta-E    RMSDP     MaxDP     DIISErr   Damp  Time(sec)
-------------------------------------------------------------------------------------------
               ***  Starting incremental Fock matrix formation  ***
    1    -546.0853867117522213     0.00e+00  1.67e-03  5.67e-02  2.31e-01  0.850   1.5
Warning: op=0 Small HOMO/LUMO gap (  -0.022) - skipping pre-diagonalization
         Will do a full diagonalization
    2    -546.5878925370019488    -5.03e-01  1.72e-03  7.68e-02  1.89e-01  0.850   1.5
                               ***Turning on AO-DIIS***
    3    -546.8417991410350396    -2.54e-01  1.08e-03  4.06e-02  1.63e-01  0.850   1.4
    4    -547.0251929169872938    -1.83e-01  8.25e-04  1.71e-02  1.37e-01  0.850   1.2
    5    -547.1686297663721916    -1.43e-01  6.96e-04  1.61e-02  1.15e-01  0.850   1.3
    6    -547.2979787112250278    -1.29e-01  6.59e-04  1.58e-02  9.77e-02  0.850   1.9
    7    -547.4206804631286332    -1.23e-01  7.18e-04  2.34e-02  8.32e-02  0.850   1.4
    8    -547.5311408791588974    -1.10e-01  5.09e-04  1.63e-02  7.15e-02  0.850   1.5
    9    -547.6222292527967284    -9.11e-02  3.90e-04  1.17e-02  6.11e-02  0.850   1.4
   10    -547.6968729390304134    -7.46e-02  3.38e-04  9.30e-03  5.17e-02  0.850   1.3
   11    -547.7600594552048960    -6.32e-02  2.98e-04  9.04e-03  4.37e-02  0.850   1.4
   12    -547.8153290568826606    -5.53e-02  2.66e-04  9.20e-03  3.70e-02  0.850   1.4
   13    -547.8634423767940689    -4.81e-02  2.35e-04  7.72e-03  3.16e-02  0.850   1.3
   14    -547.9042480473341357    -4.08e-02  2.14e-04  5.83e-03  2.70e-02  0.850   1.4
   15    -547.9385911987452573    -3.43e-02  1.32e-03  3.11e-02  2.29e-02  0.000   1.4
   16    -548.1306666307378919    -1.92e-01  2.40e-04  8.18e-03  8.28e-03  0.000   1.2
   17    -548.1305726738488602     9.40e-05  9.27e-05  2.94e-03  1.28e-02  0.000   1.6
   18    -548.1315545203088959    -9.82e-04  7.88e-05  1.75e-03  4.24e-03  0.000   1.2
   19    -548.1318454903436077    -2.91e-04  7.70e-05  2.72e-03  1.54e-03  0.000   1.3
                              *** Initializing SOSCF ***
---------------------------------------S-O-S-C-F--------------------------------------
Iteration    Energy (Eh)           Delta-E    RMSDP     MaxDP     MaxGrad    Time(sec)
--------------------------------------------------------------------------------------
   20    -548.1319410839506645    -9.56e-05  3.22e-05  1.23e-03  9.93e-04     1.4
               *** Restarting incremental Fock matrix formation ***
   21    -548.1320060687781961    -6.50e-05  6.70e-05  1.94e-03  1.94e-03     1.5
   22    -548.1320364479446425    -3.04e-05  9.49e-05  2.44e-03  2.55e-03     1.3
   23    -548.1321053685916240    -6.89e-05  4.91e-05  1.84e-03  5.91e-04     1.3
   24    -548.1321041839531745     1.18e-06  2.02e-05  4.56e-04  8.11e-04     1.5
   25    -548.1321155595989012    -1.14e-05  1.11e-05  5.06e-04  1.25e-04     1.2
   26    -548.1321158981853614    -3.39e-07  4.77e-06  1.94e-04  1.10e-04     1.2
   27    -548.1321164149336482    -5.17e-07  4.33e-06  1.75e-04  5.82e-05     1.1
   28    -548.1321165093635273    -9.44e-08  1.99e-06  7.02e-05  2.93e-05     1.1
   29    -548.1321165529103610    -4.35e-08  1.17e-06  5.55e-05  1.52e-05     1.2
   30    -548.1321165586783764    -5.77e-09  6.53e-07  2.25e-05  8.18e-06     1.3
                 **** Energy Check signals convergence ****

               *****************************************************
               *                     SUCCESS                       *
               *           SCF CONVERGED AFTER  30 CYCLES          *
               *****************************************************

             **** ENERGY FILE WAS UPDATED (HNDVDQJCIGZPNO-YFKPBYRVSA-N_59.orcainp.en.tmp) ****

----------------
TOTAL SCF ENERGY
----------------

Total Energy       :       -548.13211655867838 Eh          -14915.43318 eV

Components:
Nuclear Repulsion  :        626.15700437254543 Eh           17038.59831 eV
Electronic Energy  :      -1174.28912093122381 Eh          -31954.03149 eV
One Electron Energy:      -1973.79542232972290 Eh          -53709.70399 eV
Two Electron Energy:        799.50630139849909 Eh           21755.67250 eV

Virial components:
Potential Energy   :      -1094.18753213495711 Eh          -29774.35645 eV
Kinetic Energy     :        546.05541557627862 Eh           14858.92327 eV
Virial Ratio       :          2.00380309566238

DFT components:
N(Alpha)           :       41.000005337277 electrons
N(Beta)            :       40.000005546341 electrons
N(Total)           :       81.000010883618 electrons
E(XC)              :      -73.112531290552 Eh       

---------------
SCF CONVERGENCE
---------------

  Last Energy change         ...    5.7680e-09  Tolerance :   1.0000e-08
  Last MAX-Density change    ...    2.2502e-05  Tolerance :   1.0000e-07
  Last RMS-Density change    ...    6.5321e-07  Tolerance :   5.0000e-09
  Last DIIS Error            ...    9.9264e-04  Tolerance :   5.0000e-07
  Last Orbital Gradient      ...    8.1831e-06  Tolerance :   1.0000e-05
  Last Orbital Rotation      ...    4.5652e-05  Tolerance :   1.0000e-05


----------------------
UHF SPIN CONTAMINATION
----------------------

Warning: in a DFT calculation there is little theoretical justification to 
         calculate <S**2> as in Hartree-Fock theory. We will do it anyways
         but you should keep in mind that the values have only limited relevance

Expectation value of <S**2>     :     0.753235
Ideal value S*(S+1) for S=0.5   :     0.750000
Deviation                       :     0.003235

----------------
ORBITAL ENERGIES
----------------
                 SPIN UP ORBITALS
  NO   OCC          E(Eh)            E(eV) 
   0   1.0000     -18.947741      -515.5942 
   1   1.0000     -18.939645      -515.3739 
   2   1.0000     -14.233217      -387.3055 
   3   1.0000     -14.200307      -386.4100 
   4   1.0000     -14.168020      -385.5314 
   5   1.0000     -10.198772      -277.5227 
   6   1.0000     -10.139549      -275.9112 
   7   1.0000     -10.136012      -275.8149 
   8   1.0000     -10.116292      -275.2783 
   9   1.0000     -10.112188      -275.1666 
  10   1.0000     -10.089642      -274.5531 
  11   1.0000      -1.200300       -32.6618 
  12   1.0000      -1.138032       -30.9674 
  13   1.0000      -1.125088       -30.6152 
  14   1.0000      -1.034513       -28.1505 
  15   1.0000      -0.997969       -27.1561 
  16   1.0000      -0.905226       -24.6325 
  17   1.0000      -0.861138       -23.4328 
  18   1.0000      -0.791952       -21.5501 
  19   1.0000      -0.755311       -20.5531 
  20   1.0000      -0.730152       -19.8685 
  21   1.0000      -0.710855       -19.3434 
  22   1.0000      -0.687998       -18.7214 
  23   1.0000      -0.666385       -18.1333 
  24   1.0000      -0.658125       -17.9085 
  25   1.0000      -0.602260       -16.3883 
  26   1.0000      -0.596973       -16.2445 
  27   1.0000      -0.586721       -15.9655 
  28   1.0000      -0.583241       -15.8708 
  29   1.0000      -0.577168       -15.7055 
  30   1.0000      -0.562617       -15.3096 
  31   1.0000      -0.536158       -14.5896 
  32   1.0000      -0.526308       -14.3216 
  33   1.0000      -0.524358       -14.2685 
  34   1.0000      -0.493502       -13.4289 
  35   1.0000      -0.466085       -12.6828 
  36   1.0000      -0.453246       -12.3334 
  37   1.0000      -0.443224       -12.0607 
  38   1.0000      -0.432698       -11.7743 
  39   1.0000      -0.412796       -11.2328 
  40   1.0000      -0.396597       -10.7919 
  41   0.0000      -0.209594        -5.7033 
  42   0.0000      -0.197443        -5.3727 
  43   0.0000      -0.172388        -4.6909 
  44   0.0000      -0.136693        -3.7196 
  45   0.0000      -0.124209        -3.3799 
  46   0.0000      -0.105014        -2.8576 
  47   0.0000      -0.082836        -2.2541 
  48   0.0000      -0.077716        -2.1148 
  49   0.0000      -0.074523        -2.0279 
  50   0.0000      -0.066194        -1.8012 
  51   0.0000      -0.061907        -1.6846 

                 SPIN DOWN ORBITALS
  NO   OCC          E(Eh)            E(eV) 
   0   1.0000     -18.947118      -515.5773 
   1   1.0000     -18.934596      -515.2366 
   2   1.0000     -14.233256      -387.3066 
   3   1.0000     -14.197531      -386.3345 
   4   1.0000     -14.168225      -385.5370 
   5   1.0000     -10.198716      -277.5212 
   6   1.0000     -10.139189      -275.9014 
   7   1.0000     -10.135593      -275.8035 
   8   1.0000     -10.115883      -275.2672 
   9   1.0000     -10.111884      -275.1584 
  10   1.0000     -10.089493      -274.5491 
  11   1.0000      -1.192130       -32.4395 
  12   1.0000      -1.135646       -30.9025 
  13   1.0000      -1.115547       -30.3556 
  14   1.0000      -1.025545       -27.9065 
  15   1.0000      -0.996833       -27.1252 
  16   1.0000      -0.900555       -24.5053 
  17   1.0000      -0.855034       -23.2667 
  18   1.0000      -0.786425       -21.3997 
  19   1.0000      -0.753376       -20.5004 
  20   1.0000      -0.726595       -19.7717 
  21   1.0000      -0.708492       -19.2790 
  22   1.0000      -0.683813       -18.6075 
  23   1.0000      -0.660837       -17.9823 
  24   1.0000      -0.652922       -17.7669 
  25   1.0000      -0.598853       -16.2956 
  26   1.0000      -0.593630       -16.1535 
  27   1.0000      -0.579556       -15.7705 
  28   1.0000      -0.575221       -15.6526 
  29   1.0000      -0.574788       -15.6408 
  30   1.0000      -0.559051       -15.2126 
  31   1.0000      -0.533742       -14.5239 
  32   1.0000      -0.523781       -14.2528 
  33   1.0000      -0.519088       -14.1251 
  34   1.0000      -0.488493       -13.2926 
  35   1.0000      -0.448452       -12.2030 
  36   1.0000      -0.445581       -12.1249 
  37   1.0000      -0.440646       -11.9906 
  38   1.0000      -0.422852       -11.5064 
  39   1.0000      -0.385294       -10.4844 
  40   0.0000      -0.384875       -10.4730 
  41   0.0000      -0.204592        -5.5672 
  42   0.0000      -0.190724        -5.1899 
  43   0.0000      -0.164897        -4.4871 
  44   0.0000      -0.136093        -3.7033 
  45   0.0000      -0.123795        -3.3686 
  46   0.0000      -0.104408        -2.8411 
  47   0.0000      -0.081773        -2.2251 
  48   0.0000      -0.076413        -2.0793 
  49   0.0000      -0.073196        -1.9918 
  50   0.0000      -0.064597        -1.7578 
*Only the first 10 virtual orbitals were printed.

                    ********************************
                    * MULLIKEN POPULATION ANALYSIS *
                    ********************************

--------------------------------------------
MULLIKEN ATOMIC CHARGES AND SPIN POPULATIONS
--------------------------------------------
   0 N :   -0.439037    0.290533
   1 C :   -0.269081    0.047895
   2 C :   -0.314597    0.020399
   3 C :    0.029665    0.099750
   4 C :   -0.063197    0.122643
   5 N :   -0.276186   -0.007588
   6 C :   -0.017199    0.093519
   7 N :   -0.260745   -0.024203
   8 C :    0.421606    0.002874
   9 O :   -0.201759    0.331849
  10 O :   -0.412514    0.034529
  11 H :    0.359024   -0.006515
  12 H :    0.369038   -0.004920
  13 H :    0.261943   -0.001532
  14 H :    0.246730    0.006958
  15 H :    0.243354    0.002988
  16 H :    0.258153   -0.003930
  17 H :    0.394613   -0.000375
  18 H :    0.251317   -0.002971
  19 H :    0.418871   -0.001903
Sum of atomic charges         :    1.0000000
Sum of atomic spin populations:    1.0000000

-----------------------------------------------------
MULLIKEN REDUCED ORBITAL CHARGES AND SPIN POPULATIONS
-----------------------------------------------------
CHARGE
  0 N s       :     3.545062  s :     3.545062
      pz      :     1.095101  p :     3.856511
      px      :     1.293679
      py      :     1.467730
      dz2     :     0.006956  d :     0.037464
      dxz     :     0.011995
      dyz     :     0.006258
      dx2y2   :     0.006172
      dxy     :     0.006083

  1 C s       :     3.253807  s :     3.253807
      pz      :     0.836453  p :     2.955545
      px      :     1.082004
      py      :     1.037087
      dz2     :     0.016070  d :     0.059730
      dxz     :     0.012565
      dyz     :     0.009766
      dx2y2   :     0.005756
      dxy     :     0.015573

  2 C s       :     3.151636  s :     3.151636
      pz      :     0.993102  p :     3.119720
      px      :     0.967363
      py      :     1.159256
      dz2     :     0.010505  d :     0.043241
      dxz     :     0.010029
      dyz     :     0.003749
      dx2y2   :     0.010857
      dxy     :     0.008102

  3 C s       :     3.194001  s :     3.194001
      pz      :     0.949443  p :     2.714676
      px      :     0.979725
      py      :     0.785507
      dz2     :     0.005663  d :     0.061658
      dxz     :     0.008582
      dyz     :     0.009682
      dx2y2   :     0.019777
      dxy     :     0.017954

  4 C s       :     3.144727  s :     3.144727
      pz      :     0.961598  p :     2.867012
      px      :     0.918098
      py      :     0.987316
      dz2     :     0.005572  d :     0.051458
      dxz     :     0.008583
      dyz     :     0.006393
      dx2y2   :     0.012468
      dxy     :     0.018443

  5 N s       :     3.369749  s :     3.369749
      pz      :     1.471348  p :     3.859984
      px      :     1.217237
      py      :     1.171400
      dz2     :     0.005750  d :     0.046452
      dxz     :     0.004664
      dyz     :     0.007940
      dx2y2   :     0.015578
      dxy     :     0.012522

  6 C s       :     3.179615  s :     3.179615
      pz      :     0.922666  p :     2.766964
      px      :     0.850869
      py      :     0.993430
      dz2     :     0.005014  d :     0.070620
      dxz     :     0.014358
      dyz     :     0.007831
      dx2y2   :     0.018299
      dxy     :     0.025119

  7 N s       :     3.541981  s :     3.541981
      pz      :     1.236802  p :     3.672841
      px      :     1.299935
      py      :     1.136104
      dz2     :     0.005247  d :     0.045923
      dxz     :     0.008048
      dyz     :     0.006711
      dx2y2   :     0.017512
      dxy     :     0.008406

  8 C s       :     3.057652  s :     3.057652
      pz      :     0.790183  p :     2.404881
      px      :     0.782116
      py      :     0.832582
      dz2     :     0.005818  d :     0.115860
      dxz     :     0.023659
      dyz     :     0.011881
      dx2y2   :     0.031708
      dxy     :     0.042795

  9 O s       :     3.863229  s :     3.863229
      pz      :     1.457664  p :     4.303946
      px      :     1.307982
      py      :     1.538301
      dz2     :     0.006185  d :     0.034584
      dxz     :     0.007158
      dyz     :     0.002144
      dx2y2   :     0.013541
      dxy     :     0.005557

 10 O s       :     3.776729  s :     3.776729
      pz      :     1.718631  p :     4.606638
      px      :     1.410359
      py      :     1.477647
      dz2     :     0.002858  d :     0.029148
      dxz     :     0.003398
      dyz     :     0.004845
      dx2y2   :     0.006982
      dxy     :     0.011064

 11 H s       :     0.640976  s :     0.640976

 12 H s       :     0.630962  s :     0.630962

 13 H s       :     0.738057  s :     0.738057

 14 H s       :     0.753270  s :     0.753270

 15 H s       :     0.756646  s :     0.756646

 16 H s       :     0.741847  s :     0.741847

 17 H s       :     0.605387  s :     0.605387

 18 H s       :     0.748683  s :     0.748683

 19 H s       :     0.581129  s :     0.581129


SPIN
  0 N s       :     0.028918  s :     0.028918
      pz      :     0.010163  p :     0.262666
      px      :     0.072857
      py      :     0.179646
      dz2     :    -0.000190  d :    -0.001050
      dxz     :    -0.000077
      dyz     :    -0.000028
      dx2y2   :    -0.000276
      dxy     :    -0.000480

  1 C s       :    -0.002268  s :    -0.002268
      pz      :    -0.006084  p :     0.047543
      px      :     0.024679
      py      :     0.028948
      dz2     :     0.000357  d :     0.002620
      dxz     :     0.000491
      dyz     :     0.000834
      dx2y2   :     0.000439
      dxy     :     0.000500

  2 C s       :     0.000652  s :     0.000652
      pz      :     0.011120  p :     0.018528
      px      :     0.008696
      py      :    -0.001289
      dz2     :    -0.000015  d :     0.001220
      dxz     :     0.001038
      dyz     :    -0.000031
      dx2y2   :     0.000079
      dxy     :     0.000149

  3 C s       :     0.002750  s :     0.002750
      pz      :     0.086709  p :     0.096076
      px      :     0.004083
      py      :     0.005284
      dz2     :    -0.000155  d :     0.000924
      dxz     :     0.000732
      dyz     :     0.000023
      dx2y2   :     0.000305
      dxy     :     0.000020

  4 C s       :     0.008035  s :     0.008035
      pz      :     0.097084  p :     0.114157
      px      :     0.001027
      py      :     0.016047
      dz2     :    -0.000219  d :     0.000451
      dxz     :     0.000601
      dyz     :    -0.000036
      dx2y2   :     0.000009
      dxy     :     0.000096

  5 N s       :    -0.003153  s :    -0.003153
      pz      :     0.002377  p :    -0.005646
      px      :    -0.002747
      py      :    -0.005276
      dz2     :     0.000309  d :     0.001211
      dxz     :     0.000014
      dyz     :     0.000776
      dx2y2   :     0.000098
      dxy     :     0.000015

  6 C s       :     0.007845  s :     0.007845
      pz      :     0.069962  p :     0.085848
      px      :     0.005513
      py      :     0.010372
      dz2     :    -0.000176  d :    -0.000174
      dxz     :     0.000004
      dyz     :    -0.000062
      dx2y2   :     0.000012
      dxy     :     0.000049

  7 N s       :    -0.002559  s :    -0.002559
      pz      :    -0.012435  p :    -0.022472
      px      :    -0.004028
      py      :    -0.006010
      dz2     :     0.000290  d :     0.000829
      dxz     :     0.000228
      dyz     :     0.000283
      dx2y2   :     0.000009
      dxy     :     0.000018

  8 C s       :     0.004157  s :     0.004157
      pz      :    -0.014579  p :    -0.008875
      px      :    -0.000859
      py      :     0.006563
      dz2     :     0.000050  d :     0.007592
      dxz     :    -0.000218
      dyz     :    -0.000092
      dx2y2   :     0.000067
      dxy     :     0.007785

  9 O s       :     0.004304  s :     0.004304
      pz      :     0.019849  p :     0.329016
      px      :     0.017150
      py      :     0.292016
      dz2     :    -0.000249  d :    -0.001470
      dxz     :    -0.000175
      dyz     :    -0.000064
      dx2y2   :     0.000190
      dxy     :    -0.001172

 10 O s       :    -0.001659  s :    -0.001659
      pz      :    -0.003651  p :     0.035904
      px      :     0.002919
      py      :     0.036636
      dz2     :     0.000073  d :     0.000284
      dxz     :    -0.000211
      dyz     :     0.000173
      dx2y2   :    -0.000259
      dxy     :     0.000509

 11 H s       :    -0.006515  s :    -0.006515

 12 H s       :    -0.004920  s :    -0.004920

 13 H s       :    -0.001532  s :    -0.001532

 14 H s       :     0.006958  s :     0.006958

 15 H s       :     0.002988  s :     0.002988

 16 H s       :    -0.003930  s :    -0.003930

 17 H s       :    -0.000375  s :    -0.000375

 18 H s       :    -0.002971  s :    -0.002971

 19 H s       :    -0.001903  s :    -0.001903



                     *******************************
                     * LOEWDIN POPULATION ANALYSIS *
                     *******************************

-------------------------------------------
LOEWDIN ATOMIC CHARGES AND SPIN POPULATIONS
-------------------------------------------
   0 N :   -0.321162    0.269612
   1 C :   -0.050660    0.067112
   2 C :   -0.247323    0.023299
   3 C :   -0.005304    0.091555
   4 C :   -0.047177    0.115084
   5 N :   -0.153039    0.003647
   6 C :    0.040380    0.083791
   7 N :   -0.201742   -0.013515
   8 C :    0.381288    0.023990
   9 O :   -0.225489    0.311744
  10 O :   -0.484217    0.032670
  11 H :    0.290725   -0.003129
  12 H :    0.300598   -0.002456
  13 H :    0.210460   -0.001984
  14 H :    0.207538    0.005779
  15 H :    0.200427    0.000453
  16 H :    0.205162   -0.003559
  17 H :    0.323620   -0.000298
  18 H :    0.199852   -0.002903
  19 H :    0.376063   -0.000890

----------------------------------------------------
LOEWDIN REDUCED ORBITAL CHARGES AND SPIN POPULATIONS
----------------------------------------------------
CHARGE
  0 N s       :     3.280937  s :     3.280937
      pz      :     1.208802  p :     3.982071
      px      :     1.326744
      py      :     1.446525
      dz2     :     0.013785  d :     0.058155
      dxz     :     0.019394
      dyz     :     0.009962
      dx2y2   :     0.007197
      dxy     :     0.007817

  1 C s       :     2.889861  s :     2.889861
      pz      :     0.965333  p :     3.046128
      px      :     1.045937
      py      :     1.034859
      dz2     :     0.032681  d :     0.114671
      dxz     :     0.025734
      dyz     :     0.017816
      dx2y2   :     0.010689
      dxy     :     0.027751

  2 C s       :     2.929243  s :     2.929243
      pz      :     1.092535  p :     3.241647
      px      :     1.020485
      py      :     1.128627
      dz2     :     0.017159  d :     0.076433
      dxz     :     0.019626
      dyz     :     0.005845
      dx2y2   :     0.019403
      dxy     :     0.014399

  3 C s       :     2.850161  s :     2.850161
      pz      :     0.970122  p :     3.027333
      px      :     1.071911
      py      :     0.985300
      dz2     :     0.010943  d :     0.127810
      dxz     :     0.015327
      dyz     :     0.019187
      dx2y2   :     0.043552
      dxy     :     0.038801

  4 C s       :     2.901970  s :     2.901970
      pz      :     0.985403  p :     3.041052
      px      :     1.023926
      py      :     1.031724
      dz2     :     0.010046  d :     0.104155
      dxz     :     0.017084
      dyz     :     0.011486
      dx2y2   :     0.025662
      dxy     :     0.039877

  5 N s       :     3.119546  s :     3.119546
      pz      :     1.438378  p :     3.945461
      px      :     1.243903
      py      :     1.263179
      dz2     :     0.009455  d :     0.088032
      dxz     :     0.007330
      dyz     :     0.015664
      dx2y2   :     0.028152
      dxy     :     0.027431

  6 C s       :     2.877931  s :     2.877931
      pz      :     0.943595  p :     2.936568
      px      :     0.970009
      py      :     1.022964
      dz2     :     0.011014  d :     0.145121
      dxz     :     0.027690
      dyz     :     0.012239
      dx2y2   :     0.039429
      dxy     :     0.054750

  7 N s       :     3.216479  s :     3.216479
      pz      :     1.245908  p :     3.900756
      px      :     1.377276
      py      :     1.277572
      dz2     :     0.010103  d :     0.084507
      dxz     :     0.012674
      dyz     :     0.012346
      dx2y2   :     0.033335
      dxy     :     0.016049

  8 C s       :     2.755198  s :     2.755198
      pz      :     0.730647  p :     2.605863
      px      :     0.956545
      py      :     0.918670
      dz2     :     0.018282  d :     0.257651
      dxz     :     0.044442
      dyz     :     0.021088
      dx2y2   :     0.076236
      dxy     :     0.097602

  9 O s       :     3.548804  s :     3.548804
      pz      :     1.443288  p :     4.433206
      px      :     1.483305
      py      :     1.506613
      dz2     :     0.036055  d :     0.243479
      dxz     :     0.050892
      dyz     :     0.011521
      dx2y2   :     0.067739
      dxy     :     0.077272

 10 O s       :     3.509865  s :     3.509865
      pz      :     1.688292  p :     4.677806
      px      :     1.443131
      py      :     1.546382
      dz2     :     0.045577  d :     0.296547
      dxz     :     0.032628
      dyz     :     0.039314
      dx2y2   :     0.117882
      dxy     :     0.061146

 11 H s       :     0.709275  s :     0.709275

 12 H s       :     0.699402  s :     0.699402

 13 H s       :     0.789540  s :     0.789540

 14 H s       :     0.792462  s :     0.792462

 15 H s       :     0.799573  s :     0.799573

 16 H s       :     0.794838  s :     0.794838

 17 H s       :     0.676380  s :     0.676380

 18 H s       :     0.800148  s :     0.800148

 19 H s       :     0.623937  s :     0.623937


SPIN
  0 N s       :     0.022936  s :     0.022936
      pz      :     0.008451  p :     0.247166
      px      :     0.066159
      py      :     0.172556
      dz2     :    -0.000054  d :    -0.000490
      dxz     :    -0.000005
      dyz     :     0.000214
      dx2y2   :    -0.000275
      dxy     :    -0.000370

  1 C s       :     0.000018  s :     0.000018
      pz      :    -0.004200  p :     0.062871
      px      :     0.036828
      py      :     0.030243
      dz2     :     0.000584  d :     0.004223
      dxz     :     0.000929
      dyz     :     0.001542
      dx2y2   :     0.000610
      dxy     :     0.000558

  2 C s       :     0.001881  s :     0.001881
      pz      :     0.013173  p :     0.019359
      px      :     0.005846
      py      :     0.000340
      dz2     :    -0.000031  d :     0.002060
      dxz     :     0.001562
      dyz     :    -0.000017
      dx2y2   :     0.000129
      dxy     :     0.000416

  3 C s       :     0.002252  s :     0.002252
      pz      :     0.074756  p :     0.087530
      px      :     0.003333
      py      :     0.009442
      dz2     :    -0.000127  d :     0.001773
      dxz     :     0.001330
      dyz     :    -0.000011
      dx2y2   :     0.000558
      dxy     :     0.000023

  4 C s       :     0.003569  s :     0.003569
      pz      :     0.096379  p :     0.110536
      px      :     0.002095
      py      :     0.012061
      dz2     :    -0.000100  d :     0.000978
      dxz     :     0.001081
      dyz     :    -0.000100
      dx2y2   :     0.000016
      dxy     :     0.000080

  5 N s       :    -0.000694  s :    -0.000694
      pz      :     0.004510  p :     0.001407
      px      :    -0.000470
      py      :    -0.002632
      dz2     :     0.000676  d :     0.002933
      dxz     :     0.000106
      dyz     :     0.001655
      dx2y2   :     0.000286
      dxy     :     0.000211

  6 C s       :     0.003009  s :     0.003009
      pz      :     0.068298  p :     0.081435
      px      :     0.004258
      py      :     0.008879
      dz2     :    -0.000193  d :    -0.000654
      dxz     :    -0.000128
      dyz     :    -0.000116
      dx2y2   :    -0.000119
      dxy     :    -0.000098

  7 N s       :    -0.000787  s :    -0.000787
      pz      :    -0.010231  p :    -0.015155
      px      :    -0.001254
      py      :    -0.003671
      dz2     :     0.000674  d :     0.002427
      dxz     :     0.000571
      dyz     :     0.000752
      dx2y2   :     0.000242
      dxy     :     0.000187

  8 C s       :     0.003389  s :     0.003389
      pz      :    -0.010428  p :     0.002735
      px      :     0.002511
      py      :     0.010652
      dz2     :     0.000296  d :     0.017867
      dxz     :     0.000024
      dyz     :    -0.000148
      dx2y2   :     0.000443
      dxy     :     0.017252

  9 O s       :     0.004251  s :     0.004251
      pz      :     0.017987  p :     0.305513
      px      :     0.011628
      py      :     0.275898
      dz2     :     0.000206  d :     0.001980
      dxz     :    -0.000622
      dyz     :    -0.000201
      dx2y2   :     0.000281
      dxy     :     0.002316

 10 O s       :     0.001034  s :     0.001034
      pz      :    -0.003686  p :     0.031630
      px      :     0.003764
      py      :     0.031553
      dz2     :     0.001709  d :     0.000005
      dxz     :    -0.000823
      dyz     :    -0.000424
      dx2y2   :    -0.000870
      dxy     :     0.000414

 11 H s       :    -0.003129  s :    -0.003129

 12 H s       :    -0.002456  s :    -0.002456

 13 H s       :    -0.001984  s :    -0.001984

 14 H s       :     0.005779  s :     0.005779

 15 H s       :     0.000453  s :     0.000453

 16 H s       :    -0.003559  s :    -0.003559

 17 H s       :    -0.000298  s :    -0.000298

 18 H s       :    -0.002903  s :    -0.002903

 19 H s       :    -0.000890  s :    -0.000890



                      *****************************
                      * MAYER POPULATION ANALYSIS *
                      *****************************

  NA   - Mulliken gross atomic population
  ZA   - Total nuclear charge
  QA   - Mulliken gross atomic charge
  VA   - Mayer's total valence
  BVA  - Mayer's bonded valence
  FA   - Mayer's free valence

  ATOM       NA         ZA         QA         VA         BVA        FA
  0 N      7.4390     7.0000    -0.4390     3.0489     2.9769     0.0720
  1 C      6.2691     6.0000    -0.2691     3.7770     3.7721     0.0049
  2 C      6.3146     6.0000    -0.3146     3.5040     3.5031     0.0009
  3 C      5.9703     6.0000     0.0297     3.8616     3.8527     0.0089
  4 C      6.0632     6.0000    -0.0632     3.8397     3.8274     0.0123
  5 N      7.2762     7.0000    -0.2762     3.3548     3.3547     0.0001
  6 C      6.0172     6.0000    -0.0172     3.9748     3.9683     0.0065
  7 N      7.2607     7.0000    -0.2607     3.0000     2.9997     0.0003
  8 C      5.5784     6.0000     0.4216     4.0213     4.0183     0.0030
  9 O      8.2018     8.0000    -0.2018     2.3865     2.2957     0.0908
 10 O      8.4125     8.0000    -0.4125     1.9354     1.9340     0.0015
 11 H      0.6410     1.0000     0.3590     0.8534     0.8533     0.0000
 12 H      0.6310     1.0000     0.3690     0.8455     0.8455     0.0000
 13 H      0.7381     1.0000     0.2619     0.9123     0.9123     0.0000
 14 H      0.7533     1.0000     0.2467     0.9276     0.9276     0.0001
 15 H      0.7566     1.0000     0.2434     0.9318     0.9318     0.0000
 16 H      0.7418     1.0000     0.2582     0.9142     0.9142     0.0000
 17 H      0.6054     1.0000     0.3946     0.8269     0.8269     0.0000
 18 H      0.7487     1.0000     0.2513     0.9311     0.9311     0.0000
 19 H      0.5811     1.0000     0.4189     0.8359     0.8359     0.0000

  Mayer bond orders larger than 0.100000
B(  0-N ,  1-C ) :   1.0635 B(  0-N ,  2-C ) :  -0.1061 B(  0-N ,  9-O ) :   0.1339 
B(  0-N , 11-H ) :   0.8220 B(  0-N , 12-H ) :   0.8369 B(  1-C ,  2-C ) :   0.7913 
B(  1-C ,  8-C ) :   0.8157 B(  1-C , 13-H ) :   0.9121 B(  2-C ,  3-C ) :   0.9238 
B(  2-C , 14-H ) :   0.9387 B(  2-C , 15-H ) :   0.9314 B(  3-C ,  4-C ) :   1.4731 
B(  3-C ,  7-N ) :   1.2646 B(  4-C ,  5-N ) :   1.2824 B(  4-C , 16-H ) :   0.8801 
B(  5-N ,  6-C ) :   1.2609 B(  5-N , 17-H ) :   0.7967 B(  6-C ,  7-N ) :   1.5756 
B(  6-C , 18-H ) :   0.9082 B(  7-N , 19-H ) :   0.1914 B(  8-C ,  9-O ) :   1.8844 
B(  8-C , 10-O ) :   1.2660 B( 10-O , 19-H ) :   0.6062 

-------
TIMINGS
-------

Total SCF time: 0 days 0 hours 0 min 41 sec 

Total time                  ....      41.907 sec
Sum of individual times     ....      41.067 sec  ( 98.0%)

SCF preparation             ....       0.814 sec  (  1.9%)
Fock matrix formation       ....      34.593 sec  ( 82.5%)
  Startup                   ....       0.516 sec  (  1.5% of F)
  Split-RI-J                ....       2.819 sec  (  8.1% of F)
  XC integration            ....      28.561 sec  ( 82.6% of F)
    XC Preparation          ....       0.000 sec  (  0.0% of XC)
    Basis function eval.    ....       3.977 sec  ( 13.9% of XC)
    Density eval.           ....       4.112 sec  ( 14.4% of XC)
    XC-Functional eval.     ....       0.958 sec  (  3.4% of XC)
    XC-Potential eval.      ....       5.795 sec  ( 20.3% of XC)
Diagonalization             ....       0.000 sec  (  0.0%)
Density matrix formation    ....       1.234 sec  (  2.9%)
Total Energy calculation    ....       0.351 sec  (  0.8%)
Population analysis         ....       0.101 sec  (  0.2%)
Orbital Transformation      ....       0.220 sec  (  0.5%)
Orbital Orthonormalization  ....       0.000 sec  (  0.0%)
DIIS solution               ....       2.672 sec  (  6.4%)
SOSCF solution              ....       1.084 sec  (  2.6%)
Finished LeanSCF after  42.0 sec

Maximum memory used throughout the entire LEANSCF-calculation: 37.5 MB


           ************************************************************
           *        Program running with 16 parallel MPI-processes    *
           *              working on a common directory               *
           ************************************************************

------------------------------------------------------------------------------
                         ORCA PROPERTY INTEGRAL CALCULATIONS
------------------------------------------------------------------------------

GBWName                                   ... HNDVDQJCIGZPNO-YFKPBYRVSA-N_59.orcainp.gbw
Number of atoms                           ...     20
Number of basis functions                 ...    246
Max core memory                           ...    700 MB

Dipole integrals                          ... YES
Quadrupole integrals                      ...  NO
Linear momentum integrals                 ...  NO
Angular momentum integrals                ...  NO
Higher moments length integrals           ...  NO
Higher moments velocity integrals         ...  NO
Kinetic energy integrals                  ...  NO
GIAO right hand sides                     ...  NO
GIAO dipole derivative integrals          ...  NO
SOC integrals                             ...  NO
EPR diamagnetic integrals (GIAO)          ...  NO
EPR gauge integrals                       ...  NO
Field gradient integrals                  ...  NO (   0 nuclei)
Spin-dipole/Fermi contact integrals       ...  NO (   0 nuclei)
Contact density integrals                 ...  NO (   0 nuclei)
Nucleus-orbit integrals                   ...  NO (   0 nuclei)
Geometric perturbations                   ...  NO (  20 nuclei)

Choice of electric origin   ... Center of mass
Position of electric origin ... (  0.0513,  0.0510, -0.0145) 
Choice of magnetic origin   ... GIAO
Position of magnetic origin ... (  0.0000,  0.0000,  0.0000) 

Calculating integrals                     ... Electric Dipole (Length)     done (  0.0 sec)

Property integrals calculated in   0.0 sec

Maximum memory used throughout the entire PROPINT-calculation: 14.6 MB


-------------------------------------------------------------------------------
                          DFT DISPERSION CORRECTION                            
                                                                               
                              DFTD3 V3.1  Rev 1                                
                          USING Becke-Johnson damping                          
-------------------------------------------------------------------------------
The B97-3c composite method is recognized
Using three-body term ABC
Active option DFTDOPT                   ...         4   

molecular C6(AA) [au] = 3931.185503 


            DFT-D V3
 parameters
 s6 scaling factor         :     1.0000 
 a1 scaling factor         :     0.3700 
 s8 scaling factor         :     1.5000 
 a2 scaling factor         :     4.1000 
 Damping factor alpha9(ATM):    16.0000 
 ad hoc parameters k1-k3   :    16.0000     1.3333    -4.0000 

 Edisp/kcal,au: -29.173119729713  -0.046490320583 
 E6   /kcal   : -15.041980727 
 E8   /kcal   : -14.178569381 
 E6(ABC)      :   0.047430378 
 % E8         :  48.601484901 
 % E6(ABC)    :  -0.162582467 

-------------------------   ----------------
Dispersion correction           -0.046490321
-------------------------   ----------------

------------------   -----------------
SRB correction            -0.061205943
------------------   -----------------

-------------------------   --------------------
FINAL SINGLE POINT ENERGY      -548.239812822761
-------------------------   --------------------



           ************************************************************
           *        Program running with 16 parallel MPI-processes    *
           *              working on a common directory               *
           ************************************************************
------------------------------------------------------------------------------
                         ORCA SCF GRADIENT CALCULATION
------------------------------------------------------------------------------

Nuc. rep. gradient        (SHARK) ... done (  0.0 sec)
HCore & Overlap gradient  (SHARK) ... done (  0.1 sec)
Split-RIJ-J gradient      (SHARK) ... done (  0.3 sec)
XC gradient                       ... done (  4.3 sec)
Dispersion correction             ... done (  0.0 sec)

-------------------
DISPERSION GRADIENT
-------------------

[...]
   6   N   :   -0.000561299    0.000198399    0.000064261
   7   C   :   -0.000443395    0.000651150    0.000044284
   8   N   :   -0.000517206    0.000651706   -0.000155631
   9   C   :    0.000717997    0.000953158    0.000075228
  10   O   :    0.000471530    0.000354839    0.000084938
  11   O   :    0.000431775    0.000770388   -0.000040878
  12   H   :    0.000213760   -0.000187088    0.000513907
  13   H   :    0.000202395   -0.000282369    0.000280061
  14   H   :    0.000367574   -0.000224543   -0.000272133
  15   H   :    0.000082680   -0.000347946   -0.000400832
  16   H   :   -0.000033943   -0.000529947   -0.000058453
  17   H   :   -0.000438236   -0.000323492    0.000010113
  18   H   :   -0.000422059    0.000127484    0.000058167
  19   H   :   -0.000106367    0.000461475    0.000048813
  20   H   :   -0.000003266    0.000501129   -0.000143569

Difference to translation invariance:
           :   -0.0000000000    0.0000000000    0.0000000000

Difference to rotation invariance:
           :    0.0000000000   -0.0000000000    0.0000000000

Norm of the Dispersion gradient    ...    0.0033644839
RMS gradient                       ...    0.0004343530
MAX gradient                       ...    0.0009531578
SRB correction                   ... done

------------------
CARTESIAN GRADIENT
------------------

   1   N   :   -0.000251731   -0.000043992    0.000574222
   2   C   :   -0.000878773    0.000645642   -0.000897148
   3   C   :    0.000116692   -0.001169598    0.000001961
   4   C   :    0.000352496    0.000694978    0.000411906
   5   C   :   -0.000207834   -0.000209121   -0.000019151
   6   N   :    0.000258691    0.000437527   -0.000229102
   7   C   :   -0.000073420    0.000005854    0.000109676
   8   N   :   -0.000301352   -0.000317964   -0.000016743
   9   C   :    0.000642775   -0.000040049    0.000334708
  10   O   :   -0.000325079   -0.000063523   -0.000129947
  11   O   :   -0.000438420    0.000086700   -0.000222834
  12   H   :    0.000179094   -0.000009160   -0.000235140
  13   H   :    0.000231670   -0.000012177    0.000101307
  14   H   :    0.000450904   -0.000238527    0.000236066
  15   H   :    0.000053870    0.000100002   -0.000046491
  16   H   :   -0.000059858    0.000132368   -0.000070313
  17   H   :    0.000189771   -0.000027130    0.000031869
  18   H   :    0.000112577   -0.000088070    0.000150183
  19   H   :    0.000010785   -0.000066528   -0.000106687
  20   H   :   -0.000062858    0.000182769    0.000021659

Difference to translation invariance:
           :    0.0000000000   -0.0000000000   -0.0000000000

Difference to rotation invariance:
           :    0.0000236968    0.0000291704   -0.0000235838

Norm of the Cartesian gradient     ...    0.0025886544
RMS gradient                       ...    0.0003341938
MAX gradient                       ...    0.0011695980

-------
TIMINGS
-------

Total SCF gradient time     ....        4.527 sec

Densities                   ....       0.002 sec  (  0.1%)
One electron gradient       ....       0.094 sec  (  2.1%)
RI-J Coulomb gradient       ....       0.309 sec  (  6.8%)
XC gradient                 ....       4.026 sec  ( 88.9%)

Maximum memory used throughout the entire SCFGRAD-calculation: 44.7 MB
------------------------------------------------------------------------------
                         ORCA GEOMETRY RELAXATION STEP
------------------------------------------------------------------------------

Reading the OPT-File                    .... done
Getting information on internals        .... done
Copying old internal coords+grads       .... done
Making the new internal coordinates     .... (2022 redundants) done
Validating the new internal coordinates .... (2022 redundants) done
Calculating the B-matrix                .... done
Calculating the G,G- and P matrices     .... done
Transforming gradient to internals      .... done
Projecting the internal gradient        .... done
Number of atoms                         ....  20
Number of internal coordinates          ....  99
Current Energy                          ....  -548.284116276 Eh
Current gradient norm                   ....     0.002588654 Eh/bohr
Maximum allowed component of the step   ....  0.300
Current trust radius                    ....  0.700
Updating the Hessian (BFGS)             .... done
Forming the augmented Hessian           .... done
Diagonalizing the augmented Hessian     .... done
Last element of RFO vector              ....  0.976731748
Lowest eigenvalues of augmented Hessian:
 -0.000025161  0.000146118  0.002160898  0.003773206  0.004022117
Length of the computed step             ....  0.219573760
The final length of the internal step   ....  0.219573760
Converting the step to Cartesian space:
 Initial RMS(Int)=    0.0220679932
Transforming coordinates:
 Iter   0:  RMS(Cart)=    0.0360407124 RMS(Int)=    0.8931447794
done
Storing new coordinates                 .... done
The predicted energy change is          ....    -0.000013187
Previously predicted energy change      ....    -0.000014073
Actually observed energy change         ....    -0.000020245
Ratio of predicted to observed change   ....     1.438546188
New trust radius                        ....     0.700000000

                                .--------------------.
          ----------------------|Geometry convergence|-------------------------
          Item                value                   Tolerance       Converged
          ---------------------------------------------------------------------
          Energy change      -0.0000202453            0.0000050000      NO
          RMS gradient        0.0001595812            0.0001000000      NO
          MAX gradient        0.0005781563            0.0003000000      NO
          RMS step            0.0220679932            0.0020000000      NO
          MAX step            0.1101714104            0.0040000000      NO
          ........................................................
          Max(Bonds)      0.0583      Max(Angles)    1.85
          Max(Dihed)        3.55      Max(Improp)    0.00
          ---------------------------------------------------------------------

The optimization has not yet converged - more geometry cycles are needed


    ---------------------------------------------------------------------------
                         Redundant Internal Coordinates
                            (Angstroem and degrees)

        Definition                    Value    dE/dq     Step     New-Value
    ----------------------------------------------------------------------------
     1. B(C   1,N   0)                1.3866  0.000318 -0.0001    1.3864   
     2. B(C   2,C   1)                1.4796 -0.000140  0.0004    1.4800   
     3. B(C   3,C   2)                1.4992  0.000313  0.0003    1.4995   
     4. B(C   4,C   3)                1.3625 -0.000065  0.0003    1.3629   
     5. B(N   5,C   4)                1.3765  0.000148 -0.0002    1.3763   
     6. B(C   6,N   5)                1.3315 -0.000323  0.0004    1.3319   
     7. B(N   7,C   3)                1.3757 -0.000238 -0.0004    1.3753   
     8. B(N   7,C   6)                1.3282 -0.000139 -0.0001    1.3282   
     9. B(C   8,C   1)                3.5733  0.000253  0.0238    3.5971   
    10. B(O   9,C   8)                1.1587 -0.000260  0.0001    1.1588   
    11. B(O  10,C   8)                1.1710  0.000380 -0.0003    1.1707   
    12. B(H  11,N   0)                1.0108 -0.000261  0.0000    1.0108   
    13. B(H  12,N   0)                1.0084  0.000250  0.0001    1.0085   
    14. B(H  13,C   1)                1.0767  0.000099 -0.0004    1.0763   
    15. B(H  13,N   0)                2.1173  0.000140 -0.0004    2.1169   
    16. B(H  13,C   8)                3.6286  0.000036  0.0383    3.6669   
    17. B(H  13,O   9)                3.7928 -0.000175  0.0583    3.8511   
    18. B(H  14,C   2)                1.0900  0.000023 -0.0003    1.0898   
    19. B(H  15,C   2)                1.0988 -0.000125 -0.0001    1.0986   
    20. B(H  16,C   4)                1.0732 -0.000097 -0.0000    1.0731   
    21. B(H  17,N   5)                1.0081 -0.000112  0.0000    1.0081   
    22. B(H  18,C   6)                1.0734 -0.000079  0.0000    1.0734   
    23. B(H  19,O  10)                2.0072 -0.000209  0.0071    2.0143   
    24. B(H  19,N   7)                1.0165 -0.000190 -0.0007    1.0159   
    25. A(H  11,N   0,H  12)          110.72  0.000003   -0.03    110.69   
    26. A(C   1,N   0,H  11)          116.65 -0.000148   -0.06    116.59   
    27. A(C   1,N   0,H  12)          115.45  0.000081    0.06    115.51   
    28. A(N   0,C   1,H  13)          117.99 -0.000191    0.00    117.99   
    29. A(C   2,C   1,C   8)          131.77  0.000159    0.49    132.25   
    30. A(N   0,C   1,C   8)           62.90  0.000045   -1.85     61.05   
    31. A(C   2,C   1,H  13)          121.17  0.000242    0.16    121.33   
    32. A(N   0,C   1,C   2)          119.85 -0.000101   -0.06    119.78   
    33. A(C   8,C   1,H  13)           84.33 -0.000113    0.84     85.17   
    34. A(H  14,C   2,H  15)          105.61  0.000062    0.13    105.74   
    35. A(C   1,C   2,H  14)          108.67  0.000219   -0.10    108.58   
    36. A(C   3,C   2,H  15)          107.18 -0.000033    0.03    107.21   
    37. A(C   1,C   2,H  15)          112.63  0.000211   -0.20    112.42   
    38. A(C   3,C   2,H  14)          108.39  0.000164    0.02    108.40   
    39. A(C   1,C   2,C   3)          113.97 -0.000578    0.13    114.09   
    40. A(C   4,C   3,N   7)          105.66 -0.000092    0.01    105.67   
    41. A(C   2,C   3,C   4)          132.13 -0.000267   -0.04    132.09   
    42. A(C   2,C   3,N   7)          122.17  0.000358    0.03    122.20   
    43. A(N   5,C   4,H  16)          122.28  0.000196   -0.04    122.24   
    44. A(C   3,C   4,H  16)          130.73 -0.000127    0.05    130.78   
    45. A(C   3,C   4,N   5)          106.99 -0.000069   -0.01    106.98   
    46. A(C   6,N   5,H  17)          124.66  0.000017   -0.07    124.59   
    47. A(C   4,N   5,H  17)          125.60 -0.000065    0.07    125.66   
    48. A(C   4,N   5,C   6)          109.74  0.000048   -0.00    109.74   
    49. A(N   7,C   6,H  18)          126.50  0.000021   -0.02    126.48   
    50. A(N   5,C   6,H  18)          126.63  0.000058    0.03    126.66   
    51. A(N   5,C   6,N   7)          106.87 -0.000079   -0.01    106.85   
    52. A(C   6,N   7,H  19)          125.13 -0.000217    0.02    125.16   
    53. A(C   3,N   7,H  19)          124.07  0.000026   -0.03    124.05   
    54. A(C   3,N   7,C   6)          110.74  0.000193    0.02    110.75   
    55. A(C   1,C   8,O  10)           82.61  0.000208   -0.57     82.03   
    56. A(C   1,C   8,O   9)           97.52 -0.000026    0.65     98.17   
    57. D(C   2,C   1,N   0,H  12)    158.30 -0.000164   -0.13    158.17   
    58. D(H  13,C   1,N   0,H  11)   -143.08  0.000161   -0.42   -143.50   
    59. D(C   8,C   1,N   0,H  12)    -77.02  0.000061   -0.37    -77.39   
    60. D(C   8,C   1,N   0,H  11)    150.36  0.000129   -0.28    150.08   
    61. D(C   2,C   1,N   0,H  11)     25.68 -0.000095   -0.04     25.64   
    62. D(H  13,C   1,N   0,H  12)    -10.46  0.000092   -0.51    -10.97   
    63. D(H  14,C   2,C   1,C   8)    104.44  0.000042    3.55    107.98   
    64. D(C   3,C   2,C   1,N   0)     62.41  0.000104    1.15     63.56   
    65. D(H  14,C   2,C   1,N   0)   -176.62  0.000090    1.18   -175.44   
    66. D(H  14,C   2,C   1,H  13)     -8.23 -0.000226    1.57     -6.66   
    67. D(C   3,C   2,C   1,C   8)    -16.54  0.000056    3.51    -13.03   
    68. D(C   3,C   2,C   1,H  13)   -129.20 -0.000211    1.53   -127.67   
    69. D(C   4,C   3,C   2,H  15)    -34.56 -0.000011   -2.47    -37.04   
    70. D(C   4,C   3,C   2,H  14)     78.99  0.000123   -2.30     76.69   
    71. D(C   4,C   3,C   2,C   1)   -159.88  0.000141   -2.32   -162.20   
    72. D(N   7,C   3,C   2,H  14)    -98.50  0.000169   -2.20   -100.70   
    73. D(N   7,C   3,C   2,C   1)     22.63  0.000187   -2.23     20.40   
    74. D(H  16,C   4,C   3,N   7)    179.82  0.000034    0.09    179.91   
    75. D(H  16,C   4,C   3,C   2)      2.03  0.000064    0.17      2.20   
    76. D(N   5,C   4,C   3,N   7)      0.38 -0.000005   -0.04      0.34   
    77. D(N   5,C   4,C   3,C   2)   -177.41  0.000025    0.04   -177.37   
    78. D(H  17,N   5,C   4,H  16)      0.37  0.000034   -0.03      0.33   
    79. D(H  17,N   5,C   4,C   3)    179.87  0.000067    0.08    179.95   
    80. D(C   6,N   5,C   4,H  16)   -179.99 -0.000018   -0.09   -180.08   
    81. D(C   6,N   5,C   4,C   3)     -0.49  0.000015    0.02     -0.46   
    82. D(H  18,C   6,N   5,H  17)      0.67 -0.000091   -0.03      0.64   
    83. D(H  18,C   6,N   5,C   4)   -178.98 -0.000040    0.03   -178.95   
    84. D(N   7,C   6,N   5,H  17)   -179.96 -0.000071   -0.05   -180.02   
    85. D(N   7,C   6,N   5,C   4)      0.39 -0.000020    0.01      0.39   
    86. D(C   6,N   7,C   3,C   4)     -0.16 -0.000008    0.05     -0.11   
    87. D(C   6,N   7,C   3,C   2)    177.91 -0.000050   -0.03    177.88   
    88. D(H  19,N   7,C   6,H  18)      1.93 -0.000010   -0.37      1.56   
    89. D(H  19,N   7,C   6,N   5)   -177.44 -0.000030   -0.34   -177.78   
    90. D(C   3,N   7,C   6,H  18)    179.23  0.000037   -0.06    179.17   
    91. D(C   3,N   7,C   6,N   5)     -0.14  0.000017   -0.03     -0.17   
    92. D(H  19,N   7,C   3,C   4)    177.18  0.000030    0.36    177.53   
    93. D(H  19,N   7,C   3,C   2)     -4.76 -0.000012    0.28     -4.47   
    94. D(O  10,C   8,C   1,C   2)     -9.32 -0.000213   -2.99    -12.31   
    95. D(O  10,C   8,C   1,N   0)   -116.33 -0.000069   -1.50   -117.83   
    96. D(O   9,C   8,C   1,H  13)    -61.46  0.000133   -1.78    -63.24   
    97. D(O   9,C   8,C   1,C   2)    171.04 -0.000188   -2.96    168.09   
    98. D(O  10,C   8,C   1,H  13)    118.17  0.000109   -1.81    116.36   
    99. D(O   9,C   8,C   1,N   0)     64.03 -0.000044   -1.47     62.57   
    ----------------------------------------------------------------------------

Geometry step timings:
Preparation and reading OPT file:      0.004 s (18.774 %)
Internal coordinates            :      0.000 s ( 0.180 %)
B/P matrices and projection     :      0.002 s ( 6.349 %)
Hessian update/contruction      :      0.009 s (35.967 %)
Making the step                 :      0.002 s ( 6.286 %)
Converting the step to Cartesian:      0.000 s ( 0.690 %)
Storing new data                :      0.002 s (10.037 %)
Checking convergence            :      0.000 s ( 0.134 %)
Final printing                  :      0.005 s (21.572 %)
Total time                      :      0.024 s

Time for energy+gradient        :     28.431 s
Time for complete geometry iter :     30.011 s




    ----------------------------------------------------------------------------
                                   ERROR !!!
       The optimization did not converge but reached the maximum 
       number of optimization cycles.
       As a subsequent Frequencies calculation has been requested
       ORCA will abort at this point of the run.
       Please restart the calculation with the lowest energy geometry and/or
       a larger maxiter for the geometry optimization.
    ----------------------------------------------------------------------------



--------------------------------
SUGGESTED CITATIONS FOR THIS RUN
--------------------------------

Below you find a list of papers that are relevant to this ORCA run
We neither can nor want to force you to cite these papers, but we appreciate if you do
You receive ORCA, which is the product of decades of hard work by many enthusiastic individuals, for free
The only thing we kindly ask in return is that you cite our papers,
We deeply appreciate it, if you show your appreciation for ORCA by not just citing the generic ORCA reference.

Please note that relegating all ORCA citations to the supporting information does *not* help us.
SI sections are not indexed - citations you put there will not count into any citation statistics
But we need these citations in order to attract the funding resources that allow us to do what we are doing

Therefore, if you are a happy ORCA user, please consider citing a few of the papers listed below in the main body of your paper

In addition to the list printed below, the program has created the file HNDVDQJCIGZPNO-YFKPBYRVSA-N_59.orcainp.bibtex that contains the list in bibtex format
You can import this file easily into all common literature databanks and citation aid programs


List of essential papers. We consider these as the minimum necessary citations

  1. Neese,F.
     Software update: the ORCA program system, version 5.0
     WIRES Comput. Molec. Sci., 2022 12(1)e1606
     doi.org/10.1002/wcms.1606

List of papers to cite with high priority. The work reported in these papers was absolutely
necessary for this run to complete.
Our perspective: the developers of density functionals and basis sets usually get cited in chemistry papers
Good! But without the algorithms to do something with them, the functionals or basis sets would not do anything.
Hence, in our opinion, the algorithm design and method developments papers are equally worthy of getting cited

  1. Neese,F.
     An improvement of the resolution of the identity approximation for the formation of the Coulomb matrix
     J. Comp. Chem., 2003 24(14)1740-1747
     doi.org/10.1002/jcc.10318
  2. Bykov,D.; Petrenko,T.; Izsak,R.; Kossmann,S.; Becker,U.; Valeev,E.; Neese,F.
     Efficient implementation of the analytic second derivatives of Hartree-Fock and hybrid DFT energies: a detailed analysis of different approximations
     Molec. Phys., 2015 113 1961-1977
     doi.org/10.1080/00268976.2015.1025114
  3. Neese,F.
     The SHARK Integral Generation and Digestion System
     J. Comp. Chem., 2022  1-16
     doi.org/10.1002/jcc.26942
  4. Grimme,S.; Antony,J.; Ehrlich,S.; Krieg,H.
     A consistent and accurate ab initio parametrization of density functional dispersion correction (DFT-D) for the 94 elements H-Pu
     J. Chem. Phys., 2010 132 154104
     doi.org/10.1063/1.3382344
  5. Grimme,S.; Ehrlich,S.; Goerigk,L.
     Effect of the damping function in dispersion corrected density functional theory
     J. Comput. Chem., 2011 32(7)1456-1465
     doi.org/10.1002/jcc.21759

List of suggested additional citations. These are papers that are important in the 'surrounding' of 
of this run, or papers that preceded the highly important papers. If you like your results we are grateful for a citation.

  1. Neese,F.
     The ORCA program system
     WIRES Comput. Molec. Sci., 2012 2(1)73-78
     doi.org/10.1002/wcms.81
  2. Neese,F.
     Software update: the ORCA program system, version 4.0
     WIRES Comput. Molec. Sci., 2018 8(1)1-6
     doi.org/10.1002/wcms.1327
  3. Neese,F.; Wennmohs,F.; Becker,U.; Riplinger,C.
     The ORCA quantum chemistry program package
     J. Chem. Phys., 2020 152 Art. No. L224108
     doi.org/10.1063/5.0004608

List of optional additional citations

  1. Neese,F.
     Approximate second-order SCF convergence for spin unrestricted wavefunctions
     Chem. Phys. Lett., 2000 325(1-3)93-98
     doi.org/10.1016/s0009-2614(00)00662-x

Timings for individual modules:

Sum of individual times          ...     1927.393 sec (=  32.123 min)
Startup calculation              ...      310.213 sec (=   5.170 min)  16.1 %
SCF iterations                   ...     1181.517 sec (=  19.692 min)  61.3 %
Property integrals               ...       86.676 sec (=   1.445 min)   4.5 %
SCF Gradient evaluation          ...      347.315 sec (=   5.789 min)  18.0 %
Geometry relaxation              ...        1.674 sec (=   0.028 min)   0.1 %
                             ****ORCA TERMINATED NORMALLY****
TOTAL RUN TIME: 0 days 0 hours 34 minutes 2 seconds 968 msec
