 Entering Gaussian System, Link 0=/uufs/chpc.utah.edu/sys/installdir/gaussian16/C01/AVX/g16/g16
 Input=MAHT4_clust-19.com
 Output=MAHT4_clust-19.log
 Initial command:
 /uufs/chpc.utah.edu/sys/installdir/gaussian16/C01/AVX/g16/l1.exe "/scratch/general/vast/u0906557/notchpeak.peaks/Gau-2331196.inp" -scrdir="/scratch/general/vast/u0906557/notchpeak.peaks/"
 Entering Link 1 = /uufs/chpc.utah.edu/sys/installdir/gaussian16/C01/AVX/g16/l1.exe PID=   2332869.
  
 Copyright (c) 1988-2019, Gaussian, Inc.  All Rights Reserved.
  
 This is part of the Gaussian(R) 16 program.  It is based on
 the Gaussian(R) 09 system (copyright 2009, Gaussian, Inc.),
 the Gaussian(R) 03 system (copyright 2003, Gaussian, Inc.),
 the Gaussian(R) 98 system (copyright 1998, Gaussian, Inc.),
 the Gaussian(R) 94 system (copyright 1995, Gaussian, Inc.),
 the Gaussian 92(TM) system (copyright 1992, Gaussian, Inc.),
 the Gaussian 90(TM) system (copyright 1990, Gaussian, Inc.),
 the Gaussian 88(TM) system (copyright 1988, Gaussian, Inc.),
 the Gaussian 86(TM) system (copyright 1986, Carnegie Mellon
 University), and the Gaussian 82(TM) system (copyright 1983,
 Carnegie Mellon University). Gaussian is a federally registered
 trademark of Gaussian, Inc.
  
 This software contains proprietary and confidential information,
 including trade secrets, belonging to Gaussian, Inc.
  
 This software is provided under written license and may be
 used, copied, transmitted, or stored only in accord with that
 written license.
  
 The following legend is applicable only to US Government
 contracts under FAR:
  
                    RESTRICTED RIGHTS LEGEND
  
 Use, reproduction and disclosure by the US Government is
 subject to restrictions as set forth in subparagraphs (a)
 and (c) of the Commercial Computer Software - Restricted
 Rights clause in FAR 52.227-19.
  
 Gaussian, Inc.
 340 Quinnipiac St., Bldg. 40, Wallingford CT 06492
  
  
 ---------------------------------------------------------------
 Warning -- This program may not be used in any manner that
 competes with the business of Gaussian, Inc. or will provide
 assistance to any competitor of Gaussian, Inc.  The licensee
 of this program is prohibited from giving any competitor of
 Gaussian, Inc. access to this program.  By using this program,
 the user acknowledges that Gaussian, Inc. is engaged in the
 business of creating and licensing software in the field of
 computational chemistry and represents and warrants to the
 licensee that it is not a competitor of Gaussian, Inc. and that
 it will not use this program in any manner prohibited above.
 ---------------------------------------------------------------
  

 Cite this work as:
 Gaussian 16, Revision C.01,
 M. J. Frisch, G. W. Trucks, H. B. Schlegel, G. E. Scuseria, 
 M. A. Robb, J. R. Cheeseman, G. Scalmani, V. Barone, 
 G. A. Petersson, H. Nakatsuji, X. Li, M. Caricato, A. V. Marenich, 
 J. Bloino, B. G. Janesko, R. Gomperts, B. Mennucci, H. P. Hratchian, 
 J. V. Ortiz, A. F. Izmaylov, J. L. Sonnenberg, D. Williams-Young, 
 F. Ding, F. Lipparini, F. Egidi, J. Goings, B. Peng, A. Petrone, 
 T. Henderson, D. Ranasinghe, V. G. Zakrzewski, J. Gao, N. Rega, 
 G. Zheng, W. Liang, M. Hada, M. Ehara, K. Toyota, R. Fukuda, 
 J. Hasegawa, M. Ishida, T. Nakajima, Y. Honda, O. Kitao, H. Nakai, 
 T. Vreven, K. Throssell, J. A. Montgomery, Jr., J. E. Peralta, 
 F. Ogliaro, M. J. Bearpark, J. J. Heyd, E. N. Brothers, K. N. Kudin, 
 V. N. Staroverov, T. A. Keith, R. Kobayashi, J. Normand, 
 K. Raghavachari, A. P. Rendell, J. C. Burant, S. S. Iyengar, 
 J. Tomasi, M. Cossi, J. M. Millam, M. Klene, C. Adamo, R. Cammi, 
 J. W. Ochterski, R. L. Martin, K. Morokuma, O. Farkas, 
 J. B. Foresman, and D. J. Fox, Gaussian, Inc., Wallingford CT, 2019.
 
 ******************************************
 Gaussian 16:  ES64L-G16RevC.01  3-Jul-2019
                22-Sep-2023 
 ******************************************
 %NProcShared=40
 Will use up to   40 processors via shared memory.
 %Mem=64GB
 %chk=MAHT4_clust-19.chk
 ------------------------------------------------------
 #N OPT FREQ=NORAMAN Integral(Ultrafine) wB97XD def2SVP
 ------------------------------------------------------
 1/18=20,19=15,26=4,38=1/1,3;
 2/9=110,12=2,17=6,18=5,40=1/2;
 3/5=43,7=101,11=2,25=1,30=1,71=1,74=-58,75=-5/1,2,3;
 4//1;
 5/5=2,38=5/2;
 6/7=2,8=2,9=2,10=2,28=1/1;
 7//1,2,3,16;
 1/18=20,19=15,26=4/3(2);
 2/9=110/2;
 99//99;
 2/9=110/2;
 3/5=43,7=101,11=2,25=1,30=1,71=1,74=-58,75=-5/1,2,3;
 4/5=5,16=3,69=1/1;
 5/5=2,38=5/2;
 7//1,2,3,16;
 1/18=20,19=15,26=4/3(-5);
 2/9=110/2;
 6/7=2,8=2,9=2,10=2,19=2,28=1/1;
 99/9=1/99;
 --------------
 MAHT4_clust-19
 --------------
 Symbolic Z-matrix:
 Charge =  0 Multiplicity = 1
 O                    -2.0407   -0.9258   -2.1443 
 C                    -1.7829   -0.2106   -3.111 
 O                    -2.7057    0.541    -3.7845 
 C                    -0.3578   -0.0811   -3.6908 
 C                    -0.2497   -0.72     -5.1067 
 C                    -0.4477   -2.2537   -5.1404 
 C                    -0.3289   -2.8741   -6.5471 
 C                     1.0585   -2.7433   -7.1631 
 C                     1.3077   -1.7616   -8.1266 
 C                     2.5779   -1.6416   -8.6842 
 C                     3.5942   -2.5038   -8.2778 
 C                     3.3523   -3.4851   -7.3187 
 C                     2.0823   -3.6055   -6.7605 
 C                     0.1631    1.3787   -3.6994 
 S                     1.4101    1.8853   -2.4288 
 C                     1.4196    0.5921   -1.2238 
 C                     0.4221    0.5485   -0.2486 
 C                     0.431    -0.4713    0.6992 
 C                     1.4403   -1.4324    0.6695 
 C                     2.4432   -1.3825   -0.2974 
 C                     2.436    -0.3641   -1.247 
 O                    -0.1935    2.1613   -4.5806 
 H                    -3.5905    0.4566   -3.4221 
 H                     0.298    -0.6822   -3.066 
 H                     0.7359   -0.4982   -5.5206 
 H                    -0.9626   -0.2531   -5.7897 
 H                     0.2697   -2.7307   -4.4709 
 H                    -1.433    -2.5011   -4.7439 
 H                    -0.5823   -3.9343   -6.4983 
 H                    -1.0744   -2.4367   -7.2135 
 H                     0.5216   -1.0901   -8.4405 
 H                     2.7746   -0.8832   -9.4276 
 H                     4.5795   -2.4103   -8.7103 
 H                     4.146    -4.149    -7.0092 
 H                     1.8956   -4.3653   -6.0154 
 H                    -0.3607    1.293    -0.2296 
 H                    -0.3407   -0.5175    1.4533 
 H                     1.4463   -2.2232    1.405 
 H                     3.2221   -2.1305   -0.3103 
 H                     3.211    -0.3245   -1.9986 
 

 GradGradGradGradGradGradGradGradGradGradGradGradGradGradGradGradGradGrad
 Berny optimization.
 Initialization pass.
                           ----------------------------
                           !    Initial Parameters    !
                           ! (Angstroms and Degrees)  !
 --------------------------                            --------------------------
 ! Name  Definition              Value          Derivative Info.                !
 --------------------------------------------------------------------------------
 ! R1    R(1,2)                  1.2298         estimate D2E/DX2                !
 ! R2    R(2,3)                  1.3675         estimate D2E/DX2                !
 ! R3    R(2,4)                  1.544          estimate D2E/DX2                !
 ! R4    R(3,23)                 0.9599         estimate D2E/DX2                !
 ! R5    R(4,5)                  1.5571         estimate D2E/DX2                !
 ! R6    R(4,14)                 1.55           estimate D2E/DX2                !
 ! R7    R(4,24)                 1.0871         estimate D2E/DX2                !
 ! R8    R(5,6)                  1.5468         estimate D2E/DX2                !
 ! R9    R(5,25)                 1.0917         estimate D2E/DX2                !
 ! R10   R(5,26)                 1.0921         estimate D2E/DX2                !
 ! R11   R(6,7)                  1.542          estimate D2E/DX2                !
 ! R12   R(6,27)                 1.0911         estimate D2E/DX2                !
 ! R13   R(6,28)                 1.0905         estimate D2E/DX2                !
 ! R14   R(7,8)                  1.5236         estimate D2E/DX2                !
 ! R15   R(7,29)                 1.0912         estimate D2E/DX2                !
 ! R16   R(7,30)                 1.0914         estimate D2E/DX2                !
 ! R17   R(8,9)                  1.3979         estimate D2E/DX2                !
 ! R18   R(8,13)                 1.3977         estimate D2E/DX2                !
 ! R19   R(9,10)                 1.3924         estimate D2E/DX2                !
 ! R20   R(9,31)                 1.0805         estimate D2E/DX2                !
 ! R21   R(10,11)                1.3933         estimate D2E/DX2                !
 ! R22   R(10,32)                1.08           estimate D2E/DX2                !
 ! R23   R(11,12)                1.3933         estimate D2E/DX2                !
 ! R24   R(11,33)                1.0801         estimate D2E/DX2                !
 ! R25   R(12,13)                1.3925         estimate D2E/DX2                !
 ! R26   R(12,34)                1.0801         estimate D2E/DX2                !
 ! R27   R(13,35)                1.0804         estimate D2E/DX2                !
 ! R28   R(14,15)                1.851          estimate D2E/DX2                !
 ! R29   R(14,22)                1.2313         estimate D2E/DX2                !
 ! R30   R(15,16)                1.7676         estimate D2E/DX2                !
 ! R31   R(16,17)                1.3957         estimate D2E/DX2                !
 ! R32   R(16,21)                1.3957         estimate D2E/DX2                !
 ! R33   R(17,18)                1.3923         estimate D2E/DX2                !
 ! R34   R(17,36)                1.0805         estimate D2E/DX2                !
 ! R35   R(18,19)                1.394          estimate D2E/DX2                !
 ! R36   R(18,37)                1.08           estimate D2E/DX2                !
 ! R37   R(19,20)                1.394          estimate D2E/DX2                !
 ! R38   R(19,38)                1.08           estimate D2E/DX2                !
 ! R39   R(20,21)                1.3925         estimate D2E/DX2                !
 ! R40   R(20,39)                1.08           estimate D2E/DX2                !
 ! R41   R(21,40)                1.0803         estimate D2E/DX2                !
 ! A1    A(1,2,3)              124.4231         estimate D2E/DX2                !
 ! A2    A(1,2,4)              122.5095         estimate D2E/DX2                !
 ! A3    A(3,2,4)              113.067          estimate D2E/DX2                !
 ! A4    A(2,3,23)             112.8154         estimate D2E/DX2                !
 ! A5    A(2,4,5)              111.7853         estimate D2E/DX2                !
 ! A6    A(2,4,14)             113.0338         estimate D2E/DX2                !
 ! A7    A(2,4,24)             107.1339         estimate D2E/DX2                !
 ! A8    A(5,4,14)             110.981          estimate D2E/DX2                !
 ! A9    A(5,4,24)             104.706          estimate D2E/DX2                !
 ! A10   A(14,4,24)            108.737          estimate D2E/DX2                !
 ! A11   A(4,5,6)              114.6931         estimate D2E/DX2                !
 ! A12   A(4,5,25)             108.9078         estimate D2E/DX2                !
 ! A13   A(4,5,26)             110.3614         estimate D2E/DX2                !
 ! A14   A(6,5,25)             107.9834         estimate D2E/DX2                !
 ! A15   A(6,5,26)             109.0696         estimate D2E/DX2                !
 ! A16   A(25,5,26)            105.3878         estimate D2E/DX2                !
 ! A17   A(5,6,7)              114.1381         estimate D2E/DX2                !
 ! A18   A(5,6,27)             109.6303         estimate D2E/DX2                !
 ! A19   A(5,6,28)             109.4314         estimate D2E/DX2                !
 ! A20   A(7,6,27)             109.4645         estimate D2E/DX2                !
 ! A21   A(7,6,28)             108.0602         estimate D2E/DX2                !
 ! A22   A(27,6,28)            105.771          estimate D2E/DX2                !
 ! A23   A(6,7,8)              113.8557         estimate D2E/DX2                !
 ! A24   A(6,7,29)             109.404          estimate D2E/DX2                !
 ! A25   A(6,7,30)             110.0683         estimate D2E/DX2                !
 ! A26   A(8,7,29)             108.2378         estimate D2E/DX2                !
 ! A27   A(8,7,30)             109.921          estimate D2E/DX2                !
 ! A28   A(29,7,30)            104.9559         estimate D2E/DX2                !
 ! A29   A(7,8,9)              120.0842         estimate D2E/DX2                !
 ! A30   A(7,8,13)             119.8396         estimate D2E/DX2                !
 ! A31   A(9,8,13)             120.076          estimate D2E/DX2                !
 ! A32   A(8,9,10)             119.9446         estimate D2E/DX2                !
 ! A33   A(8,9,31)             120.4637         estimate D2E/DX2                !
 ! A34   A(10,9,31)            119.5912         estimate D2E/DX2                !
 ! A35   A(9,10,11)            119.6866         estimate D2E/DX2                !
 ! A36   A(9,10,32)            120.1522         estimate D2E/DX2                !
 ! A37   A(11,10,32)           120.1612         estimate D2E/DX2                !
 ! A38   A(10,11,12)           120.6607         estimate D2E/DX2                !
 ! A39   A(10,11,33)           119.6708         estimate D2E/DX2                !
 ! A40   A(12,11,33)           119.6684         estimate D2E/DX2                !
 ! A41   A(11,12,13)           119.6817         estimate D2E/DX2                !
 ! A42   A(11,12,34)           120.1717         estimate D2E/DX2                !
 ! A43   A(13,12,34)           120.1466         estimate D2E/DX2                !
 ! A44   A(8,13,12)            119.9503         estimate D2E/DX2                !
 ! A45   A(8,13,35)            120.389          estimate D2E/DX2                !
 ! A46   A(12,13,35)           119.6606         estimate D2E/DX2                !
 ! A47   A(4,14,15)            118.7098         estimate D2E/DX2                !
 ! A48   A(4,14,22)            120.3476         estimate D2E/DX2                !
 ! A49   A(15,14,22)           120.8251         estimate D2E/DX2                !
 ! A50   A(14,15,16)           105.7442         estimate D2E/DX2                !
 ! A51   A(15,16,17)           119.6923         estimate D2E/DX2                !
 ! A52   A(15,16,21)           119.5916         estimate D2E/DX2                !
 ! A53   A(17,16,21)           120.7101         estimate D2E/DX2                !
 ! A54   A(16,17,18)           119.6026         estimate D2E/DX2                !
 ! A55   A(16,17,36)           120.5683         estimate D2E/DX2                !
 ! A56   A(18,17,36)           119.8264         estimate D2E/DX2                !
 ! A57   A(17,18,19)           119.6782         estimate D2E/DX2                !
 ! A58   A(17,18,37)           120.1403         estimate D2E/DX2                !
 ! A59   A(19,18,37)           120.1815         estimate D2E/DX2                !
 ! A60   A(18,19,20)           120.7301         estimate D2E/DX2                !
 ! A61   A(18,19,38)           119.6269         estimate D2E/DX2                !
 ! A62   A(20,19,38)           119.6429         estimate D2E/DX2                !
 ! A63   A(19,20,21)           119.7017         estimate D2E/DX2                !
 ! A64   A(19,20,39)           120.157          estimate D2E/DX2                !
 ! A65   A(21,20,39)           120.1413         estimate D2E/DX2                !
 ! A66   A(16,21,20)           119.571          estimate D2E/DX2                !
 ! A67   A(16,21,40)           120.5893         estimate D2E/DX2                !
 ! A68   A(20,21,40)           119.8382         estimate D2E/DX2                !
 ! D1    D(1,2,3,23)             0.1298         estimate D2E/DX2                !
 ! D2    D(4,2,3,23)           179.8969         estimate D2E/DX2                !
 ! D3    D(1,2,4,5)            111.8334         estimate D2E/DX2                !
 ! D4    D(1,2,4,14)          -122.0853         estimate D2E/DX2                !
 ! D5    D(1,2,4,24)            -2.3272         estimate D2E/DX2                !
 ! D6    D(3,2,4,5)            -67.9388         estimate D2E/DX2                !
 ! D7    D(3,2,4,14)            58.1425         estimate D2E/DX2                !
 ! D8    D(3,2,4,24)           177.9006         estimate D2E/DX2                !
 ! D9    D(2,4,5,6)            -65.626          estimate D2E/DX2                !
 ! D10   D(2,4,5,25)           173.2635         estimate D2E/DX2                !
 ! D11   D(2,4,5,26)            58.0304         estimate D2E/DX2                !
 ! D12   D(14,4,5,6)           167.1771         estimate D2E/DX2                !
 ! D13   D(14,4,5,25)           46.0665         estimate D2E/DX2                !
 ! D14   D(14,4,5,26)          -69.1666         estimate D2E/DX2                !
 ! D15   D(24,4,5,6)            50.0263         estimate D2E/DX2                !
 ! D16   D(24,4,5,25)          -71.0843         estimate D2E/DX2                !
 ! D17   D(24,4,5,26)          173.6826         estimate D2E/DX2                !
 ! D18   D(2,4,14,15)          104.2772         estimate D2E/DX2                !
 ! D19   D(2,4,14,22)          -79.6308         estimate D2E/DX2                !
 ! D20   D(5,4,14,15)         -129.2127         estimate D2E/DX2                !
 ! D21   D(5,4,14,22)           46.8793         estimate D2E/DX2                !
 ! D22   D(24,4,14,15)         -14.5561         estimate D2E/DX2                !
 ! D23   D(24,4,14,22)         161.536          estimate D2E/DX2                !
 ! D24   D(4,5,6,7)           -179.6197         estimate D2E/DX2                !
 ! D25   D(4,5,6,27)           -56.4227         estimate D2E/DX2                !
 ! D26   D(4,5,6,28)            59.1605         estimate D2E/DX2                !
 ! D27   D(25,5,6,7)           -58.0033         estimate D2E/DX2                !
 ! D28   D(25,5,6,27)           65.1937         estimate D2E/DX2                !
 ! D29   D(25,5,6,28)         -179.2231         estimate D2E/DX2                !
 ! D30   D(26,5,6,7)            56.0377         estimate D2E/DX2                !
 ! D31   D(26,5,6,27)          179.2346         estimate D2E/DX2                !
 ! D32   D(26,5,6,28)          -65.1822         estimate D2E/DX2                !
 ! D33   D(5,6,7,8)             64.5792         estimate D2E/DX2                !
 ! D34   D(5,6,7,29)          -174.1846         estimate D2E/DX2                !
 ! D35   D(5,6,7,30)           -59.3511         estimate D2E/DX2                !
 ! D36   D(27,6,7,8)           -58.7076         estimate D2E/DX2                !
 ! D37   D(27,6,7,29)           62.5286         estimate D2E/DX2                !
 ! D38   D(27,6,7,30)          177.3621         estimate D2E/DX2                !
 ! D39   D(28,6,7,8)          -173.4444         estimate D2E/DX2                !
 ! D40   D(28,6,7,29)          -52.2083         estimate D2E/DX2                !
 ! D41   D(28,6,7,30)           62.6252         estimate D2E/DX2                !
 ! D42   D(6,7,8,9)           -101.4591         estimate D2E/DX2                !
 ! D43   D(6,7,8,13)            78.4097         estimate D2E/DX2                !
 ! D44   D(29,7,8,9)           136.6576         estimate D2E/DX2                !
 ! D45   D(29,7,8,13)          -43.4736         estimate D2E/DX2                !
 ! D46   D(30,7,8,9)            22.5508         estimate D2E/DX2                !
 ! D47   D(30,7,8,13)         -157.5804         estimate D2E/DX2                !
 ! D48   D(7,8,9,10)           179.7744         estimate D2E/DX2                !
 ! D49   D(7,8,9,31)             0.0315         estimate D2E/DX2                !
 ! D50   D(13,8,9,10)           -0.0941         estimate D2E/DX2                !
 ! D51   D(13,8,9,31)         -179.837          estimate D2E/DX2                !
 ! D52   D(7,8,13,12)         -179.7855         estimate D2E/DX2                !
 ! D53   D(7,8,13,35)            0.0607         estimate D2E/DX2                !
 ! D54   D(9,8,13,12)            0.0833         estimate D2E/DX2                !
 ! D55   D(9,8,13,35)          179.9295         estimate D2E/DX2                !
 ! D56   D(8,9,10,11)            0.0551         estimate D2E/DX2                !
 ! D57   D(8,9,10,32)         -179.8927         estimate D2E/DX2                !
 ! D58   D(31,9,10,11)         179.8003         estimate D2E/DX2                !
 ! D59   D(31,9,10,32)          -0.1475         estimate D2E/DX2                !
 ! D60   D(9,10,11,12)          -0.0055         estimate D2E/DX2                !
 ! D61   D(9,10,11,33)        -179.9823         estimate D2E/DX2                !
 ! D62   D(32,10,11,12)        179.9423         estimate D2E/DX2                !
 ! D63   D(32,10,11,33)         -0.0345         estimate D2E/DX2                !
 ! D64   D(10,11,12,13)         -0.0053         estimate D2E/DX2                !
 ! D65   D(10,11,12,34)       -179.9767         estimate D2E/DX2                !
 ! D66   D(33,11,12,13)        179.9715         estimate D2E/DX2                !
 ! D67   D(33,11,12,34)          0.0            estimate D2E/DX2                !
 ! D68   D(11,12,13,8)          -0.0336         estimate D2E/DX2                !
 ! D69   D(11,12,13,35)       -179.881          estimate D2E/DX2                !
 ! D70   D(34,12,13,8)         179.9379         estimate D2E/DX2                !
 ! D71   D(34,12,13,35)          0.0905         estimate D2E/DX2                !
 ! D72   D(4,14,15,16)         -13.3453         estimate D2E/DX2                !
 ! D73   D(22,14,15,16)        170.582          estimate D2E/DX2                !
 ! D74   D(14,15,16,17)        -80.0261         estimate D2E/DX2                !
 ! D75   D(14,15,16,21)        100.8612         estimate D2E/DX2                !
 ! D76   D(15,16,17,18)        179.9679         estimate D2E/DX2                !
 ! D77   D(15,16,17,36)          0.5687         estimate D2E/DX2                !
 ! D78   D(21,16,17,18)         -0.9295         estimate D2E/DX2                !
 ! D79   D(21,16,17,36)        179.6714         estimate D2E/DX2                !
 ! D80   D(15,16,21,20)        179.9884         estimate D2E/DX2                !
 ! D81   D(15,16,21,40)         -0.4696         estimate D2E/DX2                !
 ! D82   D(17,16,21,20)          0.8849         estimate D2E/DX2                !
 ! D83   D(17,16,21,40)       -179.5731         estimate D2E/DX2                !
 ! D84   D(16,17,18,19)          0.4153         estimate D2E/DX2                !
 ! D85   D(16,17,18,37)       -179.5551         estimate D2E/DX2                !
 ! D86   D(36,17,18,19)        179.8189         estimate D2E/DX2                !
 ! D87   D(36,17,18,37)         -0.1515         estimate D2E/DX2                !
 ! D88   D(17,18,19,20)          0.1348         estimate D2E/DX2                !
 ! D89   D(17,18,19,38)       -179.9889         estimate D2E/DX2                !
 ! D90   D(37,18,19,20)       -179.8948         estimate D2E/DX2                !
 ! D91   D(37,18,19,38)         -0.0186         estimate D2E/DX2                !
 ! D92   D(18,19,20,21)         -0.1792         estimate D2E/DX2                !
 ! D93   D(18,19,20,39)        179.8455         estimate D2E/DX2                !
 ! D94   D(38,19,20,21)        179.9445         estimate D2E/DX2                !
 ! D95   D(38,19,20,39)         -0.0307         estimate D2E/DX2                !
 ! D96   D(19,20,21,16)         -0.3269         estimate D2E/DX2                !
 ! D97   D(19,20,21,40)       -179.8724         estimate D2E/DX2                !
 ! D98   D(39,20,21,16)        179.6484         estimate D2E/DX2                !
 ! D99   D(39,20,21,40)          0.1028         estimate D2E/DX2                !
 --------------------------------------------------------------------------------
 Trust Radius=3.00D-01 FncErr=1.00D-07 GrdErr=1.00D-06 EigMax=2.50D+02 EigMin=1.00D-04
 Number of steps in this run=    218 maximum allowed number of steps=    240.
 GradGradGradGradGradGradGradGradGradGradGradGradGradGradGradGradGradGrad

                          Input orientation:                          
 ---------------------------------------------------------------------
 Center     Atomic      Atomic             Coordinates (Angstroms)
 Number     Number       Type             X           Y           Z
 ---------------------------------------------------------------------
      1          8           0       -2.040700   -0.925800   -2.144300
      2          6           0       -1.782900   -0.210600   -3.111000
      3          8           0       -2.705700    0.541000   -3.784500
      4          6           0       -0.357800   -0.081100   -3.690800
      5          6           0       -0.249700   -0.720000   -5.106700
      6          6           0       -0.447700   -2.253700   -5.140400
      7          6           0       -0.328900   -2.874100   -6.547100
      8          6           0        1.058500   -2.743300   -7.163100
      9          6           0        1.307700   -1.761600   -8.126600
     10          6           0        2.577900   -1.641600   -8.684200
     11          6           0        3.594200   -2.503800   -8.277800
     12          6           0        3.352300   -3.485100   -7.318700
     13          6           0        2.082300   -3.605500   -6.760500
     14          6           0        0.163100    1.378700   -3.699400
     15         16           0        1.410100    1.885300   -2.428800
     16          6           0        1.419600    0.592100   -1.223800
     17          6           0        0.422100    0.548500   -0.248600
     18          6           0        0.431000   -0.471300    0.699200
     19          6           0        1.440300   -1.432400    0.669500
     20          6           0        2.443200   -1.382500   -0.297400
     21          6           0        2.436000   -0.364100   -1.247000
     22          8           0       -0.193500    2.161300   -4.580600
     23          1           0       -3.590500    0.456600   -3.422100
     24          1           0        0.298000   -0.682200   -3.066000
     25          1           0        0.735900   -0.498200   -5.520600
     26          1           0       -0.962600   -0.253100   -5.789700
     27          1           0        0.269700   -2.730700   -4.470900
     28          1           0       -1.433000   -2.501100   -4.743900
     29          1           0       -0.582300   -3.934300   -6.498300
     30          1           0       -1.074400   -2.436700   -7.213500
     31          1           0        0.521600   -1.090100   -8.440500
     32          1           0        2.774600   -0.883200   -9.427600
     33          1           0        4.579500   -2.410300   -8.710300
     34          1           0        4.146000   -4.149000   -7.009200
     35          1           0        1.895600   -4.365300   -6.015400
     36          1           0       -0.360700    1.293000   -0.229600
     37          1           0       -0.340700   -0.517500    1.453300
     38          1           0        1.446300   -2.223200    1.405000
     39          1           0        3.222100   -2.130500   -0.310300
     40          1           0        3.211000   -0.324500   -1.998600
 ---------------------------------------------------------------------
                    Distance matrix (angstroms):
                    1          2          3          4          5
     1  O    0.000000
     2  C    1.229830   0.000000
     3  O    2.298692   1.367503   0.000000
     4  C    2.436664   1.543972   2.430725   0.000000
     5  C    3.467831   2.567686   3.061090   1.557129   0.000000
     6  C    3.643842   3.174190   3.840231   2.613353   1.546795
     7  C    5.109871   4.584226   4.994401   3.995014   2.592522
     8  C    6.172252   5.559464   6.030818   4.598922   3.167635
     9  C    6.906393   6.092098   6.345327   5.027354   3.553902
    10  C    8.038291   7.219757   7.529092   5.998961   4.652223
    11  C    8.477146   7.801781   8.315605   6.521376   5.292767
    12  C    7.899929   7.402524   8.086990   6.205942   5.051052
    13  C    6.744570   6.307453   6.998213   5.272432   4.061944
    14  C    3.547646   2.580505   2.989816   1.549976   2.560359
    15  S    4.459960   3.879877   4.537056   2.929990   4.088236
    16  C    3.889089   3.802875   4.855708   3.114232   4.425504
    17  C    3.439858   3.692099   4.720781   3.585161   5.065722
    18  C    3.794913   4.414402   5.564818   4.477339   5.850955
    19  C    4.504606   5.116053   6.397010   4.906260   6.060371
    20  C    4.870829   5.210529   6.509293   4.588508   5.551575
    21  C    4.600163   4.614886   5.804756   3.722575   4.715605
    22  O    4.344870   3.211203   3.093590   2.418077   2.929476
    23  H    2.438377   1.951757   0.959858   3.288110   3.922143
    24  H    2.525547   2.134145   3.321848   1.087092   2.113258
    25  H    4.392238   3.497605   3.992316   2.172169   1.091749
    26  H    3.860540   2.801809   2.773052   2.191061   1.092113
    27  H    3.742817   3.523265   4.475284   2.832436   2.171850
    28  H    3.099805   2.834640   3.434325   2.849820   2.168903
    29  H    5.489565   5.175054   5.648172   4.772799   3.518366
    30  H    5.377113   4.721017   4.825544   4.297881   2.840034
    31  H    6.799596   5.872632   5.895277   4.934681   3.441816
    32  H    8.731288   7.818096   7.994161   6.585299   5.276666
    33  H    9.441565   8.756196   9.276196   7.416029   6.258132
    34  H    8.504794   8.115344   8.907333   6.916922   5.890647
    35  H    6.504616   6.263261   7.086653   5.369911   4.326229
    36  H    3.378099   3.547666   4.324563   3.723985   5.277366
    37  H    3.999929   4.796557   5.843646   5.162606   6.563756
    38  H    5.141979   5.905298   7.197973   5.814684   6.894800
    39  H    5.701923   6.048137   7.371960   5.333245   6.086736
    40  H    5.288019   5.117562   6.240662   3.957160   4.668313
                    6          7          8          9         10
     6  C    0.000000
     7  C    1.542016   0.000000
     8  C    2.568981   1.523628   0.000000
     9  C    3.498711   2.531983   1.397916   0.000000
    10  C    4.699728   3.812576   2.415795   1.392381   0.000000
    11  C    5.122771   4.303854   2.780232   2.408694   1.393347
    12  C    4.549872   3.810501   2.415781   2.793482   2.421317
    13  C    3.294387   2.528709   1.397727   2.422024   2.793411
    14  C    3.955235   5.141767   5.458007   5.547224   6.308859
    15  S    5.285406   6.529656   6.630321   6.765744   7.275494
    16  C    5.188944   6.588575   6.821332   7.293907   7.873287
    17  C    5.704260   7.207586   7.684482   8.257344   8.977937
    18  C    6.168468   7.672011   8.208014   8.962601   9.696751
    19  C    6.163929   7.568876   7.950714   8.803257   9.424946
    20  C    5.707096   6.997725   7.134915   7.920193   8.391882
    21  C    5.200469   6.483505   6.523675   7.110201   7.547456
    22  O    4.457602   5.407468   5.682597   5.496987   6.243576
    23  H    4.491712   5.612239   6.771089   7.144585   8.375040
    24  H    2.707179   4.161188   4.648948   5.272027   6.138613
    25  H    2.151102   2.798643   2.800420   2.952011   3.835191
    26  H    2.165436   2.800870   3.488864   3.590395   4.779247
    27  H    1.091065   2.165523   2.805406   3.921829   4.926035
    28  H    1.090521   2.147020   3.481201   4.415989   5.687884
    29  H    2.164815   1.091154   2.133697   3.308185   4.474539
    30  H    2.173473   1.091411   2.155413   2.638923   4.016770
    31  H    3.631001   2.736964   2.157101   1.080462   2.142875
    32  H    5.535483   4.678961   3.396017   2.148484   1.080049
    33  H    6.167775   5.383952   3.860331   3.386177   2.144291
    34  H    5.309111   4.675857   3.395929   3.873527   3.398767
    35  H    3.273459   2.730345   2.156116   3.403240   3.873831
    36  H    6.058268   7.568127   8.147347   8.629991   9.419528
    37  H    6.819290   8.340270   9.008568   9.799974  10.608993
    38  H    6.813988   8.173794   8.592627   9.543777  10.169107
    39  H    6.067329   7.215277   7.212320   8.055778   8.412860
    40  H    5.194113   6.302397   6.095565   6.575727   6.843451
                   11         12         13         14         15
    11  C    0.000000
    12  C    1.393319   0.000000
    13  C    2.408689   1.392474   0.000000
    14  C    6.914333   6.850320   6.155966   0.000000
    15  S    7.631860   7.518275   7.025978   1.850966   0.000000
    16  C    8.004524   7.583317   6.979546   2.885503   1.767620
    17  C    9.156790   8.651145   7.900432   3.558698   2.741615
    18  C    9.732596   9.050067   8.258155   4.779326   4.036903
    19  C    9.265061   8.466443   7.767846   5.349842   4.539549
    20  C    8.140571   7.385529   6.844241   4.939300   4.035923
    21  C    7.439885   6.888090   6.405502   3.770635   2.740241
    22  O    7.055432   7.207754   6.571698   1.231316   2.697768
    23  H    9.163062   8.883860   7.734742   3.875136   5.294698
    24  H    6.430087   5.938893   5.037732   2.160255   2.869642
    25  H    4.449097   4.358932   3.606308   2.677242   3.961672
    26  H    5.658685   5.603751   4.631679   2.880855   4.636605
    27  H    5.059276   4.263978   3.048452   4.182552   5.174760
    28  H    6.145014   5.522404   4.200442   4.323351   5.716941
    29  H    4.759843   4.044245   2.697583   6.051234   7.375516
    30  H    4.788848   4.550372   3.396477   5.332690   6.909832
    31  H    3.386132   3.873929   3.403736   5.357380   6.766312
    32  H    2.149448   3.398688   3.873451   6.689424   7.649160
    33  H    1.080099   2.144240   3.386182   7.679208   8.243453
    34  H    2.149538   1.080052   2.148511   7.574545   8.054687
    35  H    3.386573   2.143669   1.080429   6.431092   7.222839
    36  H    9.738093   9.320512   8.521514   3.510160   2.884967
    37  H   10.682843   9.969598   9.103471   5.513593   4.889729
    38  H    9.922138   9.018213   8.306060   6.377710   5.619529
    39  H    7.984915   7.139297   6.714153   5.758295   4.888562
    40  H    6.657668   6.189735   5.891911   3.883723   2.882972
                   16         17         18         19         20
    16  C    0.000000
    17  C    1.395680   0.000000
    18  C    2.409581   1.392263   0.000000
    19  C    2.771933   2.409067   1.394016   0.000000
    20  C    2.409361   2.795709   2.423313   1.393985   0.000000
    21  C    1.395681   2.425991   2.796285   2.409493   1.392455
    22  O    4.041359   4.663294   5.932695   6.568678   6.152764
    23  H    5.472841   5.116689   5.832544   6.754144   7.039288
    24  H    2.505100   3.076974   3.773447   3.977639   3.571757
    25  H    4.485386   5.384054   6.227327   6.299702   5.565849
    26  H    5.218878   5.767473   6.640448   6.991848   6.560517
    27  H    4.786118   5.348289   5.644541   5.429512   4.894880
    28  H    5.486011   5.740137   6.100977   6.221163   6.003962
    29  H    7.232997   7.756485   8.051283   7.856702   7.356391
    30  H    7.160319   7.724038   8.290950   8.335108   7.830536
    31  H    7.464379   8.354767   9.161072   9.162602   8.371865
    32  H    8.444813   9.583218  10.402605  10.199677   9.149846
    33  H    8.662970   9.881237  10.464629   9.939392   8.740540
    34  H    7.961290   9.035466   9.313760   8.582725   7.456629
    35  H    6.910993   7.718330   7.898996   7.314170   6.472440
    36  H    2.156192   1.080471   2.145277   3.388183   3.876178
    37  H    3.390683   2.148181   1.079964   2.150197   3.400482
    38  H    3.851911   3.386104   2.144328   1.079982   2.144470
    39  H    3.390581   3.875674   3.400334   2.149922   1.079979
    40  H    2.156290   3.406258   3.876606   3.388448   2.145452
                   21         22         23         24         25
    21  C    0.000000
    22  O    4.940122   0.000000
    23  H    6.459358   3.973378   0.000000
    24  H    2.825065   3.258999   4.067445   0.000000
    25  H    4.601302   2.969903   4.902355   2.500135   0.000000
    26  H    5.674410   2.807626   3.607639   3.031795   1.737064
    27  H    4.548316   4.915105   5.114685   2.484129   2.510631
    28  H    5.635977   4.827111   3.892294   3.019951   3.052703
    29  H    7.030833   6.401959   6.147542   4.809549   3.807930
    30  H    7.226182   5.371196   5.392278   4.707814   3.146566
    31  H    7.479201   5.097234   6.669782   5.394593   2.986986
    32  H    8.204044   6.447636   8.852999   6.829634   4.423706
    33  H    8.030092   7.793297  10.145594   7.292167   5.348231
    34  H    7.102994   8.034254   9.691866   6.509580   5.212778
    35  H    6.248141   7.001393   7.750691   4.981617   4.067455
    36  H    3.406261   4.439944   4.617708   3.518589   5.692593
    37  H    3.876237   6.603453   5.939663   4.567180   7.056537
    38  H    3.386571   7.598697   7.473391   4.866530   7.172463
    39  H    2.148378   6.951355   7.923882   4.271044   5.999402
    40  H    1.080322   4.943333   6.992630   3.122957   4.308222
                   26         27         28         29         30
    26  H    0.000000
    27  H    3.065338   0.000000
    28  H    2.523584   1.739664   0.000000
    29  H    3.768020   2.506972   2.419850   0.000000
    30  H    2.609179   3.068370   2.496330   1.731034   0.000000
    31  H    3.151216   4.302644   4.413189   3.616657   2.421998
    32  H    5.253380   5.852919   6.500657   5.399888   4.704296
    33  H    6.625578   6.053887   7.203522   5.818909   5.848734
    34  H    6.539343   4.845642   6.242788   4.760665   5.497844
    35  H    5.013027   2.775058   4.021384   2.561043   3.738428
    36  H    5.802363   5.880152   5.993657   8.165193   7.949521
    37  H    7.274456   6.353502   6.597960   8.657993   8.907023
    38  H    7.838865   6.013996   6.795334   8.336980   8.982096
    39  H    7.145640   5.136876   6.439263   7.484551   8.136820
    40  H    5.638836   4.533576   5.817301   6.904135   7.072568
                   31         32         33         34         35
    31  H    0.000000
    32  H    2.468437   0.000000
    33  H    4.275777   2.470672   0.000000
    34  H    4.953964   4.288921   2.470777   0.000000
    35  H    4.300688   4.953864   4.276427   2.469560   0.000000
    36  H    8.595144   9.958371  10.490104   9.792277   8.401353
    37  H    9.947799  11.323993  11.449446  10.243641   8.694141
    38  H    9.953535  10.995690  10.591093   9.044106   7.736459
    39  H    8.629906   9.213098   8.513567   7.057138   6.269139
    40  H    7.022613   7.462750   7.160326   6.372373   5.847480
                   36         37         38         39         40
    36  H    0.000000
    37  H    2.471935   0.000000
    38  H    4.277947   2.470853   0.000000
    39  H    4.956140   4.290175   2.470691   0.000000
    40  H    4.301477   4.956555   4.278285   2.472269   0.000000
 Stoichiometry    C18H18O3S
 Framework group  C1[X(C18H18O3S)]
 Deg. of freedom   114
 Full point group                 C1      NOp   1
 Largest Abelian subgroup         C1      NOp   1
 Largest concise Abelian subgroup C1      NOp   1
                         Standard orientation:                         
 ---------------------------------------------------------------------
 Center     Atomic      Atomic             Coordinates (Angstroms)
 Number     Number       Type             X           Y           Z
 ---------------------------------------------------------------------
      1          8           0        2.100053   -1.655826   -1.896261
      2          6           0        1.440936   -2.040519   -0.931866
      3          8           0        1.293789   -3.350846   -0.569298
      4          6           0        0.683167   -1.067158   -0.003317
      5          6           0       -0.860255   -1.217907   -0.143934
      6          6           0       -1.425753   -0.813796   -1.525774
      7          6           0       -2.956024   -0.959263   -1.647937
      8          6           0       -3.738679   -0.031197   -0.727292
      9          6           0       -4.293465   -0.523911    0.457450
     10          6           0       -5.004146    0.327853    1.298971
     11          6           0       -5.158848    1.668661    0.952974
     12          6           0       -4.609339    2.165970   -0.226883
     13          6           0       -3.898303    1.314737   -1.068795
     14          6           0        1.119043   -1.180646    1.479774
     15         16           0        2.214236    0.132940    2.187674
     16          6           0        2.820295    1.049614    0.803158
     17          6           0        3.884233    0.546342    0.053041
     18          6           0        4.359669    1.269584   -1.037499
     19          6           0        3.774162    2.492029   -1.363219
     20          6           0        2.719039    3.000384   -0.607254
     21          6           0        2.241113    2.278515    0.483353
     22          8           0        0.683708   -2.088644    2.188409
     23          1           0        1.764961   -3.952815   -1.149778
     24          1           0        0.895128   -0.060075   -0.353497
     25          1           0       -1.346537   -0.599660    0.613177
     26          1           0       -1.163924   -2.242766    0.080029
     27          1           0       -1.138984    0.214132   -1.752817
     28          1           0       -0.964878   -1.428001   -2.300100
     29          1           0       -3.258641   -0.755049   -2.676206
     30          1           0       -3.249267   -1.995108   -1.468463
     31          1           0       -4.171678   -1.562616    0.728850
     32          1           0       -5.432711   -0.048875    2.215984
     33          1           0       -5.709941    2.329231    1.606089
     34          1           0       -4.733766    3.206778   -0.487171
     35          1           0       -3.470692    1.701162   -1.982661
     36          1           0        4.334346   -0.402809    0.305882
     37          1           0        5.177786    0.884877   -1.628268
     38          1           0        4.143497    3.052274   -2.209433
     39          1           0        2.273913    3.949625   -0.866404
     40          1           0        1.422141    2.669433    1.069496
 ---------------------------------------------------------------------
 Rotational constants (GHZ):           0.3547402           0.1457749           0.1322770
 Standard basis: def2SVP (5D, 7F)
 There are   424 symmetry adapted cartesian basis functions of A   symmetry.
 There are   402 symmetry adapted basis functions of A   symmetry.
   402 basis functions,   688 primitive gaussians,   424 cartesian basis functions
    83 alpha electrons       83 beta electrons
       nuclear repulsion energy      1833.1000186571 Hartrees.
 NAtoms=   40 NActive=   40 NUniq=   40 SFac= 1.00D+00 NAtFMM=   60 NAOKFM=F Big=F
 Integral buffers will be    131072 words long.
 Raffenetti 2 integral format.
 Two-electron integral symmetry is turned on.
 Nuclear repulsion after empirical dispersion term =     1833.0699747090 Hartrees.
 One-electron integrals computed using PRISM.
   1 Symmetry operations used in ECPInt.
 ECPInt:  NShTT=   17766 NPrTT=   65330 LenC2=   15634 LenP2D=   39087.
 LDataN:  DoStor=T MaxTD1= 4 Len=   56
 NBasis=   402 RedAO= T EigKep=  2.75D-04  NBF=   402
 NBsUse=   402 1.00D-06 EigRej= -1.00D+00 NBFU=   402
 ExpMin= 1.22D-01 ExpMax= 9.18D+03 ExpMxC= 1.38D+03 IAcc=3 IRadAn=         5 AccDes= 0.00D+00
 Harris functional with IExCor= 4639 and IRadAn=       5 diagonalized for initial guess.
 HarFok:  IExCor= 4639 AccDes= 0.00D+00 IRadAn=         5 IDoV= 1 UseB2=F ITyADJ=14
 ICtDFT=  3500011 ScaDFX=  1.000000  1.000000  1.000000  1.000000
 FoFCou: FMM=F IPFlag=           0 FMFlag=      100000 FMFlg1=           0
         NFxFlg=           0 DoJE=T BraDBF=F KetDBF=T FulRan=T
         wScrn=  0.000000 ICntrl=       500 IOpCl=  0 I1Cent=   200000004 NGrid=           0
         NMat0=    1 NMatS0=      1 NMatT0=    0 NMatD0=    1 NMtDS0=    0 NMtDT0=    0
 Petite list used in FoFCou.
 Requested convergence on RMS density matrix=1.00D-08 within 128 cycles.
 Requested convergence on MAX density matrix=1.00D-06.
 Requested convergence on             energy=1.00D-06.
 No special actions if energy rises.
 Integral accuracy reduced to 1.0D-05 until final iterations.
 Initial convergence to 1.0D-05 achieved.  Increase integral accuracy.
 SCF Done:  E(RwB97XD) =  -1319.54682872     A.U. after   16 cycles
            NFock= 16  Conv=0.57D-08     -V/T= 2.0081

 **********************************************************************

            Population analysis using the SCF Density.

 **********************************************************************

 Orbital symmetries:
       Occupied  (A) (A) (A) (A) (A) (A) (A) (A) (A) (A) (A) (A)
                 (A) (A) (A) (A) (A) (A) (A) (A) (A) (A) (A) (A)
                 (A) (A) (A) (A) (A) (A) (A) (A) (A) (A) (A) (A)
                 (A) (A) (A) (A) (A) (A) (A) (A) (A) (A) (A) (A)
                 (A) (A) (A) (A) (A) (A) (A) (A) (A) (A) (A) (A)
                 (A) (A) (A) (A) (A) (A) (A) (A) (A) (A) (A) (A)
                 (A) (A) (A) (A) (A) (A) (A) (A) (A) (A) (A)
       Virtual   (A) (A) (A) (A) (A) (A) (A) (A) (A) (A) (A) (A)
                 (A) (A) (A) (A) (A) (A) (A) (A) (A) (A) (A) (A)
                 (A) (A) (A) (A) (A) (A) (A) (A) (A) (A) (A) (A)
                 (A) (A) (A) (A) (A) (A) (A) (A) (A) (A) (A) (A)
                 (A) (A) (A) (A) (A) (A) (A) (A) (A) (A) (A) (A)
                 (A) (A) (A) (A) (A) (A) (A) (A) (A) (A) (A) (A)
                 (A) (A) (A) (A) (A) (A) (A) (A) (A) (A) (A) (A)
                 (A) (A) (A) (A) (A) (A) (A) (A) (A) (A) (A) (A)
                 (A) (A) (A) (A) (A) (A) (A) (A) (A) (A) (A) (A)
                 (A) (A) (A) (A) (A) (A) (A) (A) (A) (A) (A) (A)
                 (A) (A) (A) (A) (A) (A) (A) (A) (A) (A) (A) (A)
                 (A) (A) (A) (A) (A) (A) (A) (A) (A) (A) (A) (A)
                 (A) (A) (A) (A) (A) (A) (A) (A) (A) (A) (A) (A)
                 (A) (A) (A) (A) (A) (A) (A) (A) (A) (A) (A) (A)
                 (A) (A) (A) (A) (A) (A) (A) (A) (A) (A) (A) (A)
                 (A) (A) (A) (A) (A) (A) (A) (A) (A) (A) (A) (A)
                 (A) (A) (A) (A) (A) (A) (A) (A) (A) (A) (A) (A)
                 (A) (A) (A) (A) (A) (A) (A) (A) (A) (A) (A) (A)
                 (A) (A) (A) (A) (A) (A) (A) (A) (A) (A) (A) (A)
                 (A) (A) (A) (A) (A) (A) (A) (A) (A) (A) (A) (A)
                 (A) (A) (A) (A) (A) (A) (A) (A) (A) (A) (A) (A)
                 (A) (A) (A) (A) (A) (A) (A) (A) (A) (A) (A) (A)
                 (A) (A) (A) (A) (A) (A) (A) (A) (A) (A) (A) (A)
                 (A) (A) (A) (A) (A) (A) (A) (A) (A) (A) (A) (A)
                 (A) (A) (A) (A) (A) (A) (A) (A) (A) (A) (A) (A)
                 (A) (A) (A) (A) (A) (A) (A) (A) (A) (A) (A) (A)
                 (A) (A) (A) (A) (A) (A) (A)
 The electronic state is 1-A.
 Alpha  occ. eigenvalues --  -89.02791 -19.31612 -19.26579 -19.25951 -10.45206
 Alpha  occ. eigenvalues --  -10.42532 -10.34266 -10.33754 -10.32165 -10.32018
 Alpha  occ. eigenvalues --  -10.31797 -10.31752 -10.31607 -10.31123 -10.30931
 Alpha  occ. eigenvalues --  -10.30490 -10.30412 -10.30294 -10.30195 -10.30123
 Alpha  occ. eigenvalues --  -10.30030 -10.29990  -8.07968  -6.03403  -6.02977
 Alpha  occ. eigenvalues --   -6.02468  -1.19780  -1.13850  -1.10931  -0.97696
 Alpha  occ. eigenvalues --   -0.95691  -0.92004  -0.89954  -0.87699  -0.85776
 Alpha  occ. eigenvalues --   -0.84114  -0.82998  -0.81354  -0.76780  -0.73325
 Alpha  occ. eigenvalues --   -0.71435  -0.70479  -0.69883  -0.69159  -0.66549
 Alpha  occ. eigenvalues --   -0.64752  -0.62004  -0.60549  -0.58361  -0.57944
 Alpha  occ. eigenvalues --   -0.56835  -0.56343  -0.56156  -0.55546  -0.54703
 Alpha  occ. eigenvalues --   -0.54212  -0.53053  -0.52650  -0.52011  -0.51272
 Alpha  occ. eigenvalues --   -0.50573  -0.49937  -0.49157  -0.48474  -0.48173
 Alpha  occ. eigenvalues --   -0.46947  -0.46093  -0.45407  -0.44790  -0.44612
 Alpha  occ. eigenvalues --   -0.43632  -0.43003  -0.41996  -0.41676  -0.41362
 Alpha  occ. eigenvalues --   -0.40794  -0.37585  -0.36530  -0.34808  -0.34006
 Alpha  occ. eigenvalues --   -0.33399  -0.32623  -0.32194
 Alpha virt. eigenvalues --    0.02225   0.03141   0.04734   0.05735   0.06069
 Alpha virt. eigenvalues --    0.07292   0.11527   0.12734   0.13631   0.14187
 Alpha virt. eigenvalues --    0.15568   0.15951   0.16633   0.16962   0.17819
 Alpha virt. eigenvalues --    0.19569   0.20035   0.20555   0.21082   0.21432
 Alpha virt. eigenvalues --    0.21998   0.22231   0.22584   0.22920   0.23284
 Alpha virt. eigenvalues --    0.23615   0.24885   0.25324   0.26961   0.27827
 Alpha virt. eigenvalues --    0.29240   0.30048   0.30942   0.32916   0.34601
 Alpha virt. eigenvalues --    0.35299   0.35807   0.35972   0.36125   0.37163
 Alpha virt. eigenvalues --    0.37331   0.38429   0.39270   0.40551   0.41915
 Alpha virt. eigenvalues --    0.43409   0.45005   0.45672   0.48070   0.48159
 Alpha virt. eigenvalues --    0.49095   0.49225   0.49390   0.50074   0.50460
 Alpha virt. eigenvalues --    0.51635   0.52120   0.52578   0.53988   0.54823
 Alpha virt. eigenvalues --    0.55410   0.55531   0.56083   0.56687   0.57317
 Alpha virt. eigenvalues --    0.57510   0.57954   0.58224   0.58894   0.60182
 Alpha virt. eigenvalues --    0.61403   0.62063   0.62332   0.62975   0.64756
 Alpha virt. eigenvalues --    0.64945   0.66378   0.66738   0.68103   0.68110
 Alpha virt. eigenvalues --    0.68711   0.69505   0.70357   0.70574   0.71113
 Alpha virt. eigenvalues --    0.71470   0.72294   0.72797   0.73111   0.73340
 Alpha virt. eigenvalues --    0.73818   0.74659   0.74987   0.75584   0.75849
 Alpha virt. eigenvalues --    0.76246   0.76842   0.76960   0.77339   0.78044
 Alpha virt. eigenvalues --    0.78533   0.78998   0.79399   0.79715   0.80336
 Alpha virt. eigenvalues --    0.81360   0.81750   0.82004   0.82834   0.83191
 Alpha virt. eigenvalues --    0.83419   0.83814   0.84175   0.84411   0.85403
 Alpha virt. eigenvalues --    0.86447   0.87409   0.88187   0.88629   0.89438
 Alpha virt. eigenvalues --    0.90204   0.91452   0.91873   0.94155   0.96335
 Alpha virt. eigenvalues --    0.97429   0.98763   0.99318   1.00244   1.02362
 Alpha virt. eigenvalues --    1.03017   1.05096   1.06493   1.06972   1.08504
 Alpha virt. eigenvalues --    1.09868   1.10373   1.13771   1.14447   1.15065
 Alpha virt. eigenvalues --    1.15785   1.17123   1.18180   1.21222   1.22141
 Alpha virt. eigenvalues --    1.24287   1.24786   1.26024   1.26711   1.27600
 Alpha virt. eigenvalues --    1.28103   1.30537   1.31741   1.31824   1.32537
 Alpha virt. eigenvalues --    1.33399   1.33982   1.34487   1.35335   1.35776
 Alpha virt. eigenvalues --    1.36717   1.37354   1.37610   1.38315   1.39261
 Alpha virt. eigenvalues --    1.40150   1.41212   1.45693   1.47329   1.48185
 Alpha virt. eigenvalues --    1.50505   1.53646   1.55714   1.59585   1.61004
 Alpha virt. eigenvalues --    1.61414   1.64307   1.66726   1.71884   1.72600
 Alpha virt. eigenvalues --    1.73458   1.73744   1.74807   1.76540   1.77136
 Alpha virt. eigenvalues --    1.77844   1.78380   1.78595   1.80885   1.81148
 Alpha virt. eigenvalues --    1.82428   1.82678   1.82864   1.83046   1.83605
 Alpha virt. eigenvalues --    1.83995   1.84561   1.84971   1.85437   1.86210
 Alpha virt. eigenvalues --    1.86462   1.86615   1.87784   1.88776   1.89014
 Alpha virt. eigenvalues --    1.89746   1.89783   1.91792   1.92314   1.93132
 Alpha virt. eigenvalues --    1.95620   1.96200   1.97085   1.97769   1.98130
 Alpha virt. eigenvalues --    1.99546   1.99854   2.01236   2.02976   2.03184
 Alpha virt. eigenvalues --    2.04334   2.04779   2.05226   2.06439   2.07110
 Alpha virt. eigenvalues --    2.07429   2.08342   2.08926   2.09120   2.11076
 Alpha virt. eigenvalues --    2.12826   2.13735   2.15392   2.17425   2.17526
 Alpha virt. eigenvalues --    2.19755   2.21253   2.22341   2.22742   2.23148
 Alpha virt. eigenvalues --    2.24632   2.25337   2.25584   2.25972   2.28823
 Alpha virt. eigenvalues --    2.30645   2.31903   2.33691   2.36274   2.36998
 Alpha virt. eigenvalues --    2.37530   2.38683   2.38949   2.40055   2.40546
 Alpha virt. eigenvalues --    2.42740   2.43101   2.44379   2.45031   2.45602
 Alpha virt. eigenvalues --    2.48954   2.50945   2.53810   2.54765   2.57007
 Alpha virt. eigenvalues --    2.60246   2.60996   2.62146   2.63077   2.67364
 Alpha virt. eigenvalues --    2.68290   2.69016   2.70322   2.70925   2.71633
 Alpha virt. eigenvalues --    2.72103   2.72888   2.73897   2.74409   2.77402
 Alpha virt. eigenvalues --    2.78405   2.81165   2.82266   2.82729   2.83888
 Alpha virt. eigenvalues --    2.84116   2.85744   2.89534   2.90679   2.95132
 Alpha virt. eigenvalues --    2.95567   2.96915   2.97398   2.97592   2.98699
 Alpha virt. eigenvalues --    2.98738   3.00630   3.01645   3.07056   3.08563
 Alpha virt. eigenvalues --    3.11977   3.13984   3.15122   3.18810   3.19325
 Alpha virt. eigenvalues --    3.19584   3.20941   3.23815   3.25984   3.27399
 Alpha virt. eigenvalues --    3.29148   3.34027   3.35365   3.59440   3.67181
 Alpha virt. eigenvalues --    3.69824   3.71014   3.73987   3.83881
          Condensed to atoms (all electrons):
               1          2          3          4          5          6
     1  O    7.712852   0.682690  -0.072162  -0.097170  -0.002367   0.001433
     2  C    0.682690   4.549777   0.383165   0.243140  -0.034710  -0.001013
     3  O   -0.072162   0.383165   7.694376  -0.139991   0.005714  -0.000791
     4  C   -0.097170   0.243140  -0.139991   5.580876   0.311497  -0.052810
     5  C   -0.002367  -0.034710   0.005714   0.311497   4.749456   0.377403
     6  C    0.001433  -0.001013  -0.000791  -0.052810   0.377403   4.674023
     7  C    0.000027   0.000187  -0.000017   0.007475  -0.057697   0.443987
     8  C   -0.000000   0.000057   0.000001  -0.000153  -0.005543  -0.068011
     9  C   -0.000000  -0.000007   0.000000  -0.000055   0.002539  -0.007766
    10  C    0.000000  -0.000000  -0.000000   0.000016  -0.000547   0.000012
    11  C   -0.000000  -0.000000  -0.000000   0.000000   0.000024   0.000021
    12  C    0.000000   0.000000   0.000000  -0.000005  -0.000004   0.000259
    13  C   -0.000000  -0.000000  -0.000000  -0.000040  -0.000470  -0.007825
    14  C    0.000716  -0.018505   0.011793   0.139815  -0.023777   0.008503
    15  S    0.000080   0.000122   0.000042  -0.122627   0.002172  -0.000027
    16  C   -0.001377   0.000767   0.000049   0.001973   0.000213  -0.000072
    17  C    0.003553   0.001896  -0.000074   0.000233   0.000174  -0.000001
    18  C    0.000712   0.000138   0.000007   0.000011  -0.000005   0.000003
    19  C   -0.000377  -0.000118  -0.000000   0.000302   0.000001  -0.000002
    20  C    0.000111   0.000101   0.000000  -0.000691  -0.000046  -0.000011
    21  C   -0.000323  -0.000150  -0.000003   0.000862   0.000231  -0.000032
    22  O    0.000004  -0.003640   0.000237  -0.104499   0.008393   0.000389
    23  H    0.004194  -0.005368   0.314806   0.013121  -0.000352  -0.000100
    24  H    0.010008  -0.012551   0.004616   0.330835  -0.023817  -0.006787
    25  H   -0.000146   0.006826  -0.000113  -0.022644   0.392419  -0.028485
    26  H    0.000129  -0.011418   0.006862  -0.019493   0.375361  -0.023924
    27  H    0.000021  -0.003521  -0.000010  -0.001756  -0.027276   0.377529
    28  H    0.000747   0.012823   0.000011  -0.013792  -0.016013   0.371923
    29  H   -0.000001  -0.000017   0.000001  -0.000356   0.008900  -0.017919
    30  H    0.000001  -0.000096  -0.000011   0.000664  -0.012306  -0.015427
    31  H   -0.000000  -0.000001  -0.000000   0.000014   0.000645  -0.000720
    32  H    0.000000  -0.000000   0.000000   0.000000  -0.000001   0.000000
    33  H    0.000000   0.000000   0.000000  -0.000000   0.000000   0.000001
    34  H    0.000000   0.000000   0.000000   0.000000   0.000001  -0.000001
    35  H    0.000000  -0.000000   0.000000  -0.000002   0.000245  -0.001106
    36  H   -0.000099   0.000794  -0.000033   0.000209   0.000022   0.000000
    37  H    0.000029   0.000006  -0.000000  -0.000002  -0.000000  -0.000000
    38  H   -0.000004  -0.000002  -0.000000   0.000002   0.000000   0.000000
    39  H    0.000001   0.000000   0.000000  -0.000020   0.000001   0.000000
    40  H   -0.000000  -0.000002  -0.000000   0.000331  -0.000064  -0.000006
               7          8          9         10         11         12
     1  O    0.000027  -0.000000  -0.000000   0.000000  -0.000000   0.000000
     2  C    0.000187   0.000057  -0.000007  -0.000000  -0.000000   0.000000
     3  O   -0.000017   0.000001   0.000000  -0.000000  -0.000000   0.000000
     4  C    0.007475  -0.000153  -0.000055   0.000016   0.000000  -0.000005
     5  C   -0.057697  -0.005543   0.002539  -0.000547   0.000024  -0.000004
     6  C    0.443987  -0.068011  -0.007766   0.000012   0.000021   0.000259
     7  C    4.608276   0.375848  -0.066449   0.009500   0.000331   0.008023
     8  C    0.375848   5.275645   0.325169   0.069486  -0.141074   0.072119
     9  C   -0.066449   0.325169   5.051603   0.329770   0.064256  -0.116477
    10  C    0.009500   0.069486   0.329770   4.992882   0.322531   0.063142
    11  C    0.000331  -0.141074   0.064256   0.322531   5.048669   0.321709
    12  C    0.008023   0.072119  -0.116477   0.063142   0.321709   4.987927
    13  C   -0.071521   0.320227   0.032640  -0.114232   0.062838   0.338296
    14  C   -0.000216  -0.000001  -0.000002  -0.000001  -0.000000   0.000000
    15  S   -0.000001   0.000000  -0.000000   0.000000  -0.000000   0.000000
    16  C    0.000001  -0.000000   0.000000   0.000000   0.000000  -0.000000
    17  C   -0.000000   0.000000  -0.000000   0.000000  -0.000000   0.000000
    18  C    0.000000  -0.000000   0.000000  -0.000000   0.000000  -0.000000
    19  C   -0.000000   0.000000  -0.000000   0.000000  -0.000000   0.000000
    20  C    0.000000   0.000000  -0.000000   0.000000  -0.000000  -0.000000
    21  C   -0.000000   0.000000  -0.000000   0.000000  -0.000000  -0.000000
    22  O   -0.000003  -0.000001   0.000000  -0.000000  -0.000000   0.000000
    23  H   -0.000003   0.000000  -0.000000   0.000000   0.000000  -0.000000
    24  H    0.000420  -0.000105   0.000018  -0.000001   0.000000   0.000000
    25  H   -0.011213   0.011333   0.002402   0.000246  -0.000063  -0.000000
    26  H    0.001050  -0.003862   0.000876   0.000063  -0.000000  -0.000005
    27  H   -0.017226  -0.012638  -0.000038   0.000037  -0.000012  -0.000501
    28  H   -0.019187   0.009685  -0.000218   0.000012  -0.000001   0.000012
    29  H    0.370804  -0.013852   0.006860  -0.000614   0.000027   0.000829
    30  H    0.379042  -0.025046  -0.010010   0.001090  -0.000009  -0.000489
    31  H   -0.012895  -0.070287   0.451590  -0.060630   0.013289  -0.001689
    32  H   -0.000259   0.014847  -0.065735   0.450048  -0.068263   0.013023
    33  H    0.000021  -0.001515   0.013281  -0.064794   0.446953  -0.065484
    34  H   -0.000265   0.014534  -0.001758   0.012981  -0.067552   0.449682
    35  H   -0.010613  -0.070464   0.012863  -0.001764   0.013248  -0.061121
    36  H   -0.000000   0.000000   0.000000  -0.000000   0.000000  -0.000000
    37  H   -0.000000   0.000000  -0.000000   0.000000  -0.000000   0.000000
    38  H   -0.000000   0.000000   0.000000  -0.000000   0.000000   0.000000
    39  H    0.000000  -0.000000   0.000000  -0.000000   0.000000  -0.000000
    40  H   -0.000000   0.000000  -0.000000  -0.000000  -0.000000   0.000000
              13         14         15         16         17         18
     1  O   -0.000000   0.000716   0.000080  -0.001377   0.003553   0.000712
     2  C   -0.000000  -0.018505   0.000122   0.000767   0.001896   0.000138
     3  O   -0.000000   0.011793   0.000042   0.000049  -0.000074   0.000007
     4  C   -0.000040   0.139815  -0.122627   0.001973   0.000233   0.000011
     5  C   -0.000470  -0.023777   0.002172   0.000213   0.000174  -0.000005
     6  C   -0.007825   0.008503  -0.000027  -0.000072  -0.000001   0.000003
     7  C   -0.071521  -0.000216  -0.000001   0.000001  -0.000000   0.000000
     8  C    0.320227  -0.000001   0.000000  -0.000000   0.000000  -0.000000
     9  C    0.032640  -0.000002  -0.000000   0.000000  -0.000000   0.000000
    10  C   -0.114232  -0.000001   0.000000   0.000000   0.000000  -0.000000
    11  C    0.062838  -0.000000  -0.000000   0.000000  -0.000000   0.000000
    12  C    0.338296   0.000000   0.000000  -0.000000   0.000000  -0.000000
    13  C    5.058844   0.000002   0.000000  -0.000000   0.000000  -0.000000
    14  C    0.000002   4.871273   0.295191  -0.023349  -0.008180   0.000126
    15  S    0.000000   0.295191  15.739066   0.212847  -0.060506   0.003543
    16  C   -0.000000  -0.023349   0.212847   5.546741   0.267741   0.087543
    17  C    0.000000  -0.008180  -0.060506   0.267741   4.992214   0.332211
    18  C   -0.000000   0.000126   0.003543   0.087543   0.332211   4.978202
    19  C    0.000000  -0.000006   0.000562  -0.161913   0.081134   0.301775
    20  C   -0.000000   0.000052   0.003928   0.088122  -0.122209   0.070357
    21  C   -0.000000  -0.003674  -0.064819   0.270877   0.055740  -0.121800
    22  O    0.000000   0.660993  -0.053564   0.001332   0.000018  -0.000001
    23  H    0.000000  -0.000435   0.000004  -0.000000  -0.000014  -0.000001
    24  H   -0.000005  -0.000163  -0.001819   0.005516  -0.004856   0.000285
    25  H    0.000362  -0.003584   0.001593  -0.000084  -0.000006  -0.000001
    26  H    0.000089  -0.007263   0.000257  -0.000031  -0.000010   0.000000
    27  H    0.006345  -0.000207  -0.000038   0.000010  -0.000007  -0.000003
    28  H   -0.000062   0.000352   0.000001   0.000007  -0.000004   0.000001
    29  H   -0.010820   0.000008  -0.000000  -0.000000   0.000000  -0.000000
    30  H    0.009011  -0.000028  -0.000000  -0.000000   0.000000  -0.000000
    31  H    0.012763  -0.000000  -0.000000   0.000000  -0.000000   0.000000
    32  H   -0.001817  -0.000000   0.000000  -0.000000   0.000000  -0.000000
    33  H    0.013235   0.000000  -0.000000  -0.000000   0.000000   0.000000
    34  H   -0.066796   0.000000   0.000000  -0.000000   0.000000  -0.000000
    35  H    0.448452  -0.000000   0.000000  -0.000000   0.000000   0.000000
    36  H    0.000000   0.000322   0.001540  -0.067270   0.439274  -0.049854
    37  H    0.000000  -0.000004  -0.000153   0.015007  -0.063891   0.451517
    38  H   -0.000000   0.000000   0.000012  -0.001675   0.013180  -0.063059
    39  H   -0.000000   0.000004  -0.000166   0.014911  -0.002107   0.012995
    40  H    0.000002  -0.000285   0.002695  -0.068890   0.012875  -0.001800
              19         20         21         22         23         24
     1  O   -0.000377   0.000111  -0.000323   0.000004   0.004194   0.010008
     2  C   -0.000118   0.000101  -0.000150  -0.003640  -0.005368  -0.012551
     3  O   -0.000000   0.000000  -0.000003   0.000237   0.314806   0.004616
     4  C    0.000302  -0.000691   0.000862  -0.104499   0.013121   0.330835
     5  C    0.000001  -0.000046   0.000231   0.008393  -0.000352  -0.023817
     6  C   -0.000002  -0.000011  -0.000032   0.000389  -0.000100  -0.006787
     7  C   -0.000000   0.000000  -0.000000  -0.000003  -0.000003   0.000420
     8  C    0.000000   0.000000   0.000000  -0.000001   0.000000  -0.000105
     9  C   -0.000000  -0.000000  -0.000000   0.000000  -0.000000   0.000018
    10  C    0.000000   0.000000   0.000000  -0.000000   0.000000  -0.000001
    11  C   -0.000000  -0.000000  -0.000000  -0.000000   0.000000   0.000000
    12  C    0.000000  -0.000000  -0.000000   0.000000  -0.000000   0.000000
    13  C    0.000000  -0.000000  -0.000000   0.000000   0.000000  -0.000005
    14  C   -0.000006   0.000052  -0.003674   0.660993  -0.000435  -0.000163
    15  S    0.000562   0.003928  -0.064819  -0.053564   0.000004  -0.001819
    16  C   -0.161913   0.088122   0.270877   0.001332  -0.000000   0.005516
    17  C    0.081134  -0.122209   0.055740   0.000018  -0.000014  -0.004856
    18  C    0.301775   0.070357  -0.121800  -0.000001  -0.000001   0.000285
    19  C    5.060626   0.297838   0.084091   0.000000   0.000000  -0.000606
    20  C    0.297838   5.011975   0.318234  -0.000000  -0.000000   0.001794
    21  C    0.084091   0.318234   5.030106   0.000000   0.000001  -0.003681
    22  O    0.000000  -0.000000   0.000000   7.697243   0.000064   0.003295
    23  H    0.000000  -0.000000   0.000001   0.000064   0.473051  -0.000361
    24  H   -0.000606   0.001794  -0.003681   0.003295  -0.000361   0.631745
    25  H    0.000000   0.000005   0.000087  -0.000208   0.000040  -0.006788
    26  H    0.000000   0.000000  -0.000017   0.008042  -0.000364   0.007890
    27  H    0.000005   0.000063   0.000124  -0.000007   0.000002   0.006702
    28  H   -0.000000  -0.000000   0.000003  -0.000014   0.000051  -0.001324
    29  H   -0.000000  -0.000000   0.000000   0.000000  -0.000000   0.000005
    30  H    0.000000   0.000000   0.000000  -0.000004   0.000001   0.000002
    31  H   -0.000000  -0.000000   0.000000  -0.000001   0.000000  -0.000000
    32  H    0.000000   0.000000   0.000000  -0.000000  -0.000000  -0.000000
    33  H   -0.000000   0.000000  -0.000000  -0.000000  -0.000000   0.000000
    34  H    0.000000   0.000000   0.000000  -0.000000   0.000000  -0.000000
    35  H   -0.000000  -0.000000  -0.000000  -0.000000  -0.000000  -0.000005
    36  H    0.012801  -0.001809   0.012967  -0.000061   0.000007  -0.000086
    37  H   -0.066515   0.012968  -0.002126   0.000000   0.000000   0.000007
    38  H    0.447194  -0.064121   0.013196   0.000000   0.000000  -0.000012
    39  H   -0.066650   0.453280  -0.067163  -0.000000  -0.000000   0.000070
    40  H    0.012679  -0.053176   0.444111  -0.000009   0.000000   0.000209
              25         26         27         28         29         30
     1  O   -0.000146   0.000129   0.000021   0.000747  -0.000001   0.000001
     2  C    0.006826  -0.011418  -0.003521   0.012823  -0.000017  -0.000096
     3  O   -0.000113   0.006862  -0.000010   0.000011   0.000001  -0.000011
     4  C   -0.022644  -0.019493  -0.001756  -0.013792  -0.000356   0.000664
     5  C    0.392419   0.375361  -0.027276  -0.016013   0.008900  -0.012306
     6  C   -0.028485  -0.023924   0.377529   0.371923  -0.017919  -0.015427
     7  C   -0.011213   0.001050  -0.017226  -0.019187   0.370804   0.379042
     8  C    0.011333  -0.003862  -0.012638   0.009685  -0.013852  -0.025046
     9  C    0.002402   0.000876  -0.000038  -0.000218   0.006860  -0.010010
    10  C    0.000246   0.000063   0.000037   0.000012  -0.000614   0.001090
    11  C   -0.000063  -0.000000  -0.000012  -0.000001   0.000027  -0.000009
    12  C   -0.000000  -0.000005  -0.000501   0.000012   0.000829  -0.000489
    13  C    0.000362   0.000089   0.006345  -0.000062  -0.010820   0.009011
    14  C   -0.003584  -0.007263  -0.000207   0.000352   0.000008  -0.000028
    15  S    0.001593   0.000257  -0.000038   0.000001  -0.000000  -0.000000
    16  C   -0.000084  -0.000031   0.000010   0.000007  -0.000000  -0.000000
    17  C   -0.000006  -0.000010  -0.000007  -0.000004   0.000000   0.000000
    18  C   -0.000001   0.000000  -0.000003   0.000001  -0.000000  -0.000000
    19  C    0.000000   0.000000   0.000005  -0.000000  -0.000000   0.000000
    20  C    0.000005   0.000000   0.000063  -0.000000  -0.000000   0.000000
    21  C    0.000087  -0.000017   0.000124   0.000003   0.000000   0.000000
    22  O   -0.000208   0.008042  -0.000007  -0.000014   0.000000  -0.000004
    23  H    0.000040  -0.000364   0.000002   0.000051  -0.000000   0.000001
    24  H   -0.006788   0.007890   0.006702  -0.001324   0.000005   0.000002
    25  H    0.629802  -0.021393  -0.008021   0.007426  -0.000015  -0.000844
    26  H   -0.021393   0.632711   0.007334  -0.007928  -0.000109   0.005221
    27  H   -0.008021   0.007334   0.668585  -0.023237  -0.006821   0.007838
    28  H    0.007426  -0.007928  -0.023237   0.655503  -0.006544  -0.006305
    29  H   -0.000015  -0.000109  -0.006821  -0.006544   0.662224  -0.028487
    30  H   -0.000844   0.005221   0.007838  -0.006305  -0.028487   0.669724
    31  H    0.000276   0.000293   0.000018  -0.000045   0.000231   0.004613
    32  H    0.000001  -0.000002   0.000001  -0.000000   0.000009  -0.000004
    33  H   -0.000002  -0.000000  -0.000000   0.000000  -0.000001  -0.000001
    34  H   -0.000002   0.000000   0.000012  -0.000000  -0.000001   0.000008
    35  H   -0.000042  -0.000005   0.001961  -0.000157   0.003584   0.000136
    36  H   -0.000001  -0.000000  -0.000000  -0.000000   0.000000  -0.000000
    37  H    0.000000   0.000000  -0.000000   0.000000   0.000000  -0.000000
    38  H   -0.000000  -0.000000  -0.000000  -0.000000   0.000000   0.000000
    39  H   -0.000001   0.000000   0.000000  -0.000000   0.000000  -0.000000
    40  H    0.000051  -0.000000   0.000008   0.000000   0.000000   0.000000
              31         32         33         34         35         36
     1  O   -0.000000   0.000000   0.000000   0.000000   0.000000  -0.000099
     2  C   -0.000001  -0.000000   0.000000   0.000000  -0.000000   0.000794
     3  O   -0.000000   0.000000   0.000000   0.000000   0.000000  -0.000033
     4  C    0.000014   0.000000  -0.000000   0.000000  -0.000002   0.000209
     5  C    0.000645  -0.000001   0.000000   0.000001   0.000245   0.000022
     6  C   -0.000720   0.000000   0.000001  -0.000001  -0.001106   0.000000
     7  C   -0.012895  -0.000259   0.000021  -0.000265  -0.010613  -0.000000
     8  C   -0.070287   0.014847  -0.001515   0.014534  -0.070464   0.000000
     9  C    0.451590  -0.065735   0.013281  -0.001758   0.012863   0.000000
    10  C   -0.060630   0.450048  -0.064794   0.012981  -0.001764  -0.000000
    11  C    0.013289  -0.068263   0.446953  -0.067552   0.013248   0.000000
    12  C   -0.001689   0.013023  -0.065484   0.449682  -0.061121  -0.000000
    13  C    0.012763  -0.001817   0.013235  -0.066796   0.448452   0.000000
    14  C   -0.000000  -0.000000   0.000000   0.000000  -0.000000   0.000322
    15  S   -0.000000   0.000000  -0.000000   0.000000   0.000000   0.001540
    16  C    0.000000  -0.000000  -0.000000  -0.000000  -0.000000  -0.067270
    17  C   -0.000000   0.000000   0.000000   0.000000   0.000000   0.439274
    18  C    0.000000  -0.000000   0.000000  -0.000000   0.000000  -0.049854
    19  C   -0.000000   0.000000  -0.000000   0.000000  -0.000000   0.012801
    20  C   -0.000000   0.000000   0.000000   0.000000  -0.000000  -0.001809
    21  C    0.000000   0.000000  -0.000000   0.000000  -0.000000   0.012967
    22  O   -0.000001  -0.000000  -0.000000  -0.000000  -0.000000  -0.000061
    23  H    0.000000  -0.000000  -0.000000   0.000000  -0.000000   0.000007
    24  H   -0.000000  -0.000000   0.000000  -0.000000  -0.000005  -0.000086
    25  H    0.000276   0.000001  -0.000002  -0.000002  -0.000042  -0.000001
    26  H    0.000293  -0.000002  -0.000000   0.000000  -0.000005  -0.000000
    27  H    0.000018   0.000001  -0.000000   0.000012   0.001961  -0.000000
    28  H   -0.000045  -0.000000   0.000000  -0.000000  -0.000157  -0.000000
    29  H    0.000231   0.000009  -0.000001  -0.000001   0.003584   0.000000
    30  H    0.004613  -0.000004  -0.000001   0.000008   0.000136  -0.000000
    31  H    0.668672  -0.011846  -0.000240   0.000025  -0.000182   0.000000
    32  H   -0.011846   0.665870  -0.011832  -0.000210   0.000026  -0.000000
    33  H   -0.000240  -0.011832   0.667495  -0.011849  -0.000244   0.000000
    34  H    0.000025  -0.000210  -0.011849   0.669369  -0.011840  -0.000000
    35  H   -0.000182   0.000026  -0.000244  -0.011840   0.674227  -0.000000
    36  H    0.000000  -0.000000   0.000000  -0.000000  -0.000000   0.643403
    37  H   -0.000000   0.000000  -0.000000  -0.000000   0.000000  -0.011920
    38  H   -0.000000  -0.000000   0.000000   0.000000  -0.000000  -0.000211
    39  H   -0.000000  -0.000000  -0.000000  -0.000000   0.000000   0.000024
    40  H   -0.000000   0.000000  -0.000000   0.000000   0.000000  -0.000207
              37         38         39         40
     1  O    0.000029  -0.000004   0.000001  -0.000000
     2  C    0.000006  -0.000002   0.000000  -0.000002
     3  O   -0.000000  -0.000000   0.000000  -0.000000
     4  C   -0.000002   0.000002  -0.000020   0.000331
     5  C   -0.000000   0.000000   0.000001  -0.000064
     6  C   -0.000000   0.000000   0.000000  -0.000006
     7  C   -0.000000  -0.000000   0.000000  -0.000000
     8  C    0.000000   0.000000  -0.000000   0.000000
     9  C   -0.000000   0.000000   0.000000  -0.000000
    10  C    0.000000  -0.000000  -0.000000  -0.000000
    11  C   -0.000000   0.000000   0.000000  -0.000000
    12  C    0.000000   0.000000  -0.000000   0.000000
    13  C    0.000000  -0.000000  -0.000000   0.000002
    14  C   -0.000004   0.000000   0.000004  -0.000285
    15  S   -0.000153   0.000012  -0.000166   0.002695
    16  C    0.015007  -0.001675   0.014911  -0.068890
    17  C   -0.063891   0.013180  -0.002107   0.012875
    18  C    0.451517  -0.063059   0.012995  -0.001800
    19  C   -0.066515   0.447194  -0.066650   0.012679
    20  C    0.012968  -0.064121   0.453280  -0.053176
    21  C   -0.002126   0.013196  -0.067163   0.444111
    22  O    0.000000   0.000000  -0.000000  -0.000009
    23  H    0.000000   0.000000  -0.000000   0.000000
    24  H    0.000007  -0.000012   0.000070   0.000209
    25  H    0.000000  -0.000000  -0.000001   0.000051
    26  H    0.000000  -0.000000   0.000000  -0.000000
    27  H   -0.000000  -0.000000   0.000000   0.000008
    28  H    0.000000  -0.000000  -0.000000   0.000000
    29  H    0.000000   0.000000   0.000000   0.000000
    30  H   -0.000000   0.000000  -0.000000   0.000000
    31  H   -0.000000  -0.000000  -0.000000  -0.000000
    32  H    0.000000  -0.000000  -0.000000   0.000000
    33  H   -0.000000   0.000000  -0.000000  -0.000000
    34  H   -0.000000   0.000000  -0.000000   0.000000
    35  H    0.000000  -0.000000   0.000000   0.000000
    36  H   -0.011920  -0.000211   0.000024  -0.000207
    37  H    0.649338  -0.011419  -0.000206   0.000024
    38  H   -0.011419   0.653153  -0.011466  -0.000210
    39  H   -0.000206  -0.011466   0.653384  -0.011754
    40  H    0.000024  -0.000210  -0.011754   0.641690
 Mulliken charges:
               1
     1  O   -0.243283
     2  C    0.208630
     3  O   -0.208476
     4  C   -0.055273
     5  C   -0.030417
     6  C   -0.022649
     7  C    0.062572
     8  C   -0.076400
     9  C   -0.025351
    10  C   -0.009231
    11  C   -0.016923
    12  C   -0.009247
    13  C   -0.029519
    14  C    0.100530
    15  S    0.040064
    16  C   -0.188996
    17  C    0.061622
    18  C   -0.002902
    19  C   -0.002822
    20  C   -0.016764
    21  C    0.033160
    22  O   -0.217997
    23  H    0.201656
    24  H    0.059550
    25  H    0.050786
    26  H    0.049645
    27  H    0.024724
    28  H    0.036274
    29  H    0.032076
    30  H    0.021715
    31  H    0.006108
    32  H    0.016143
    33  H    0.014975
    34  H    0.013660
    35  H    0.002804
    36  H    0.020187
    37  H    0.027339
    38  H    0.025441
    39  H    0.024861
    40  H    0.021729
 Sum of Mulliken charges =  -0.00000
 Mulliken charges with hydrogens summed into heavy atoms:
               1
     1  O   -0.243283
     2  C    0.208630
     3  O   -0.006820
     4  C    0.004277
     5  C    0.070014
     6  C    0.038348
     7  C    0.116363
     8  C   -0.076400
     9  C   -0.019243
    10  C    0.006913
    11  C   -0.001948
    12  C    0.004413
    13  C   -0.026715
    14  C    0.100530
    15  S    0.040064
    16  C   -0.188996
    17  C    0.081808
    18  C    0.024437
    19  C    0.022619
    20  C    0.008097
    21  C    0.054889
    22  O   -0.217997
 Electronic spatial extent (au):  <R**2>=           8671.7290
 Charge=             -0.0000 electrons
 Dipole moment (field-independent basis, Debye):
    X=              0.1080    Y=              1.3314    Z=             -2.8050  Tot=              3.1068
 Quadrupole moment (field-independent basis, Debye-Ang):
   XX=           -130.2225   YY=           -122.1049   ZZ=           -142.5313
   XY=             -1.3971   XZ=             -6.9491   YZ=              4.4685
 Traceless Quadrupole moment (field-independent basis, Debye-Ang):
   XX=              1.3971   YY=              9.5147   ZZ=            -10.9117
   XY=             -1.3971   XZ=             -6.9491   YZ=              4.4685
 Octapole moment (field-independent basis, Debye-Ang**2):
  XXX=             72.7597  YYY=            -40.3895  ZZZ=            -17.4445  XYY=             16.0685
  XXY=            -12.2432  XXZ=              2.2850  XZZ=            -18.4207  YZZ=              7.8919
  YYZ=            -43.3157  XYZ=             -6.7270
 Hexadecapole moment (field-independent basis, Debye-Ang**3):
 XXXX=          -8018.3009 YYYY=          -2064.3893 ZZZZ=          -1536.0334 XXXY=           -128.9013
 XXXZ=           -307.9632 YYYX=           -165.0979 YYYZ=             94.3074 ZZZX=            -42.9364
 ZZZY=             14.9639 XXYY=          -1586.2929 XXZZ=          -1520.3409 YYZZ=           -629.7821
 XXYZ=            -39.7899 YYXZ=            -82.5985 ZZXY=             18.7478
 N-N= 1.833069974709D+03 E-N=-6.753660544412D+03  KE= 1.308964539570D+03
   1 Symmetry operations used in ECPInt.
 ECPInt:  NShTT=   17766 NPrTT=   65330 LenC2=   15634 LenP2D=   39087.
 LDataN:  DoStor=T MaxTD1= 5 Len=  102
 Calling FoFJK, ICntrl=      2127 FMM=F ISym2X=0 I1Cent= 0 IOpClX= 0 NMat=1 NMatS=1 NMatT=0.
 ***** Axes restored to original set *****
 -------------------------------------------------------------------
 Center     Atomic                   Forces (Hartrees/Bohr)
 Number     Number              X              Y              Z
 -------------------------------------------------------------------
      1        8           0.004275603    0.030692467   -0.041060943
      2        6          -0.013791487   -0.012375311    0.026607195
      3        8           0.030927989   -0.011883079    0.004218004
      4        6          -0.002744993   -0.001735342   -0.007360232
      5        6          -0.004524651   -0.006117822   -0.000453034
      6        6          -0.001400083    0.011528304   -0.003994193
      7        6           0.011681101    0.005235040    0.003764030
      8        6          -0.016173966    0.000003705    0.003873919
      9        6           0.010633019   -0.006377575    0.002996853
     10        6          -0.000487669   -0.006637180    0.006537479
     11        6          -0.002690514    0.000269136    0.000780774
     12        6          -0.007111778    0.005991128   -0.002031606
     13        6           0.004700325    0.008710755   -0.007913742
     14        6          -0.018714601    0.021278714   -0.038043408
     15       16          -0.012732771    0.007308983   -0.019898616
     16        6          -0.003441187   -0.001735504   -0.002882434
[...]

                          Input orientation:                          
 ---------------------------------------------------------------------
 Center     Atomic      Atomic             Coordinates (Angstroms)
 Number     Number       Type             X           Y           Z
 ---------------------------------------------------------------------
      1          8           0       -2.264284   -0.192231   -2.110399
      2          6           0       -1.911389   -0.071983   -3.253932
      3          8           0       -2.770701    0.141001   -4.255413
      4          6           0       -0.463741   -0.069882   -3.733032
      5          6           0       -0.262984   -0.626680   -5.139792
      6          6           0       -0.764978   -2.058933   -5.277394
      7          6           0       -0.546832   -2.640038   -6.679841
      8          6           0        0.910912   -2.709027   -7.069010
      9          6           0        1.480289   -1.765973   -7.930903
     10          6           0        2.836891   -1.813519   -8.251127
     11          6           0        3.648601   -2.809339   -7.711611
     12          6           0        3.093959   -3.757080   -6.851142
     13          6           0        1.738945   -3.704438   -6.534282
     14          6           0       -0.008871    1.396569   -3.656533
     15         16           0        0.605840    2.051076   -2.094055
     16          6           0        1.198203    0.632963   -1.183675
     17          6           0        0.391842    0.017429   -0.223308
     18          6           0        0.889797   -1.064446    0.501367
     19          6           0        2.181260   -1.533789    0.266426
     20          6           0        2.987585   -0.914405   -0.689627
     21          6           0        2.502095    0.175257   -1.407532
     22          8           0       -0.135497    2.157853   -4.572349
     23          1           0       -3.655708    0.188749   -3.865648
     24          1           0        0.081463   -0.661887   -2.988947
     25          1           0        0.810545   -0.577222   -5.382385
     26          1           0       -0.775634    0.025989   -5.861364
     27          1           0       -0.258970   -2.702009   -4.536461
     28          1           0       -1.842757   -2.096595   -5.042812
     29          1           0       -0.986897   -3.649129   -6.722845
     30          1           0       -1.095191   -2.026334   -7.412220
     31          1           0        0.850689   -0.979838   -8.356435
     32          1           0        3.260855   -1.067163   -8.926435
     33          1           0        4.710461   -2.849801   -7.962952
     34          1           0        3.720978   -4.544683   -6.427209
     35          1           0        1.311617   -4.454068   -5.861812
     36          1           0       -0.632189    0.358681   -0.075622
     37          1           0        0.257063   -1.548934    1.247526
     38          1           0        2.563557   -2.386058    0.832112
     39          1           0        4.001235   -1.276543   -0.872627
     40          1           0        3.129438    0.676564   -2.147499
 ---------------------------------------------------------------------
                    Distance matrix (angstroms):
                    1          2          3          4          5
     1  O    0.000000
     2  C    1.202773   0.000000
     3  O    2.229033   1.336691   0.000000
     4  C    2.426903   1.524869   2.374746   0.000000
     5  C    3.656661   2.565424   2.767690   1.526205   0.000000
     6  C    3.970183   3.058861   3.147551   2.536163   1.523903
     7  C    5.460880   4.493749   4.307856   3.911047   2.550673
     8  C    6.403434   5.429016   5.439969   4.470292   3.071821
     9  C    7.097659   6.020560   5.934365   4.927281   3.482426
    10  C    8.146110   7.109928   7.157581   5.860685   4.549529
    11  C    8.554826   7.633971   7.864938   6.343901   5.165148
    12  C    7.993345   7.181460   7.505137   5.997939   4.898693
    13  C    6.923308   6.105765   6.349611   5.090072   3.927457
    14  C    3.162547   2.436865   3.092381   1.537283   2.521541
    15  S    3.642843   3.491295   4.440821   2.885951   4.147499
    16  C    3.678121   3.801641   5.042797   3.123342   4.401435
    17  C    3.264977   3.807565   5.125897   3.613558   5.001548
    18  C    4.186920   4.788935   6.122034   4.555365   5.774359
    19  C    5.216506   5.592815   6.911865   5.013453   6.002030
    20  C    5.488374   5.593325   6.854675   4.678374   5.518419
    21  C    4.831918   4.790529   5.992827   3.776801   4.713653
    22  O    4.014452   3.140730   3.333533   2.403123   2.844621
    23  H    2.272027   1.866768   0.968211   3.205172   3.714693
    24  H    2.548520   2.095153   3.222330   1.096075   2.178536
    25  H    4.506516   3.492064   3.822465   2.145126   1.101709
    26  H    4.041465   2.845741   2.563708   2.153200   1.099752
    27  H    4.025673   3.360418   3.804009   2.759623   2.161253
    28  H    3.521837   2.702565   2.547138   2.779347   2.160032
    29  H    5.903942   5.067941   4.861611   4.692940   3.487880
    30  H    5.730621   4.666586   4.179725   4.214601   2.795626
    31  H    7.023984   5.872718   5.584723   4.891995   3.422248
    32  H    8.817653   7.740787   7.723845   6.468278   5.191351
    33  H    9.484837   8.587203   8.868965   7.238270   6.135769
    34  H    8.567500   7.861189   8.295434   6.692855   5.734121
    35  H    6.709949   6.032535   6.352991   5.186973   4.201140
    36  H    2.665999   3.453039   4.700135   3.686283   5.172336
    37  H    4.412877   5.210248   6.504273   5.245293   6.474475
    38  H    6.064594   6.486590   7.792513   5.947247   6.837279
    39  H    6.478004   6.486964   7.701415   5.438194   6.067502
    40  H    5.463371   5.214831   6.288225   3.997754   4.707525
                    6          7          8          9         10
     6  C    0.000000
     7  C    1.533665   0.000000
     8  C    2.537936   1.510374   0.000000
     9  C    3.488289   2.537393   1.398714   0.000000
    10  C    4.677262   3.821211   2.430788   1.394694   0.000000
    11  C    5.095901   4.323757   2.813884   2.416253   1.393416
    12  C    4.500198   3.812150   2.431374   2.781065   2.409040
    13  C    3.249167   2.525651   1.400863   2.403144   2.780039
    14  C    3.890936   5.071882   5.417280   5.521730   6.285962
    15  S    5.376333   6.660678   6.892157   7.028749   7.604092
    16  C    5.278154   6.630650   6.774113   7.166557   7.656334
    17  C    5.585095   7.044860   7.386923   7.985753   8.589326
    18  C    6.092730   7.491071   7.746981   8.481981   8.997691
    19  C    6.300002   7.544329   7.536816   8.230520   8.547328
    20  C    6.036495   7.166071   6.944766   7.445346   7.616259
    21  C    5.535449   6.709626   6.550061   6.882356   7.134572
    22  O    4.321414   5.256470   5.569094   5.411752   6.175783
    23  H    3.924465   5.058343   6.285910   6.835620   8.086739
    24  H    2.811617   4.234446   4.639578   5.253442   6.050552
    25  H    2.165355   2.789458   2.720179   2.890783   3.723465
    26  H    2.165187   2.798206   3.432661   3.547296   4.705858
    27  H    1.103890   2.163512   2.789710   3.927266   4.916555
    28  H    1.103655   2.157456   3.473218   4.415089   5.680891
    29  H    2.160394   1.101713   2.145996   3.330569   4.508488
    30  H    2.160459   1.101684   2.146698   2.640060   4.026205
    31  H    3.640786   2.742316   2.156661   1.093381   2.156644
    32  H    5.523263   4.692504   3.415842   2.156347   1.092169
    33  H    6.149645   5.415672   3.905832   3.407304   2.160368
    34  H    5.255933   4.680352   3.417311   3.873373   3.401110
    35  H    3.223424   2.722812   2.159412   3.396386   3.873988
    36  H    5.737675   7.253641   7.790986   8.407268   9.142858
    37  H    6.624141   8.042381   8.422476   9.262124   9.846316
    38  H    6.965072   8.134400   8.078570   8.851464   9.105370
    39  H    6.536887   7.501184   7.070875   7.510923   7.489079
    40  H    5.696109   6.712446   6.372234   6.491028   6.598514
                   11         12         13         14         15
    11  C    0.000000
    12  C    1.395080   0.000000
    13  C    2.415387   1.392564   0.000000
    14  C    6.892780   6.811254   6.112002   0.000000
    15  S    8.027388   7.909190   7.357002   1.802106   0.000000
    16  C    7.776107   7.415291   6.909012   2.855721   1.786261
    17  C    8.641283   8.091757   7.449521   3.721509   2.771499
    18  C    8.837911   8.134371   7.562471   4.914502   4.064889
    19  C    8.211528   7.512377   7.152411   5.364073   4.572207
    20  C    7.303148   6.786485   6.595709   4.808521   4.054528
    21  C    7.068501   6.741399   6.474411   3.585325   2.754231
    22  O    6.989089   7.113980   6.459812   1.197625   2.589000
    23  H    8.782534   8.369035   7.168040   3.847334   4.976705
    24  H    6.295997   5.794126   4.957193   2.165888   2.904474
    25  H    4.296767   4.181235   3.459520   2.746972   4.214613
    26  H    5.571028   5.501366   4.548848   2.706972   4.494671
    27  H    5.036091   4.208688   2.997969   4.199424   5.413415
    28  H    6.146992   5.513477   4.199790   4.181758   5.647474
    29  H    4.813600   4.084299   2.732916   5.984804   7.513644
    30  H    4.817291   4.567195   3.408685   5.196301   6.913874
    31  H    3.404583   3.874435   3.395981   5.336219   6.961594
    32  H    2.159009   3.401522   3.872186   6.673301   7.965797
    33  H    1.091951   2.161564   3.406084   7.671310   8.678160
    34  H    2.160173   1.092333   2.155442   7.542340   8.484358
    35  H    3.404172   2.154370   1.093970   6.390375   7.550563
    36  H    9.309664   8.759642   7.990338   3.780034   2.910496
    37  H    9.662158   8.860717   8.209672   5.726822   4.924213
    38  H    8.622743   7.822622   7.528737   6.408867   5.664209
    39  H    7.017515   6.535966   6.562543   5.565663   4.908527
    40  H    6.586379   6.463955   6.353780   3.555921   2.874141
                   16         17         18         19         20
    16  C    0.000000
    17  C    1.396927   0.000000
    18  C    2.411572   1.394119   0.000000
    19  C    2.786397   2.418292   1.394044   0.000000
    20  C    2.416675   2.797079   2.416960   1.395649   0.000000
    21  C    1.399907   2.424966   2.789313   2.413692   1.392282
    22  O    3.948057   4.875824   6.097297   6.512244   5.853882
    23  H    5.563340   5.447811   6.426735   7.356043   7.445629
    24  H    2.486514   2.864710   3.605239   3.970744   3.714321
    25  H    4.386797   5.210086   5.904423   5.890921   5.184127
    26  H    5.113240   5.757669   6.666863   6.980397   6.464752
    27  H    4.948390   5.140251   5.420423   5.512457   5.341702
    28  H    5.620574   5.717529   6.266586   6.685616   6.609084
    29  H    7.334397   7.588712   7.898848   7.960012   7.724955
    30  H    7.150264   7.620281   8.215245   8.362973   7.943468
    31  H    7.360053   8.206877   8.858293   8.742484   7.959306
    32  H    8.191171   9.227783   9.721387   9.267791   8.242755
    33  H    8.391912   9.315233   9.456726   8.709271   7.721095
    34  H    7.788906   8.389541   8.254259   7.499397   6.829101
    35  H    6.911997   7.254860   7.222016   6.843947   6.487648
    36  H    2.157162   1.089451   2.162093   3.407922   3.885938
    37  H    3.399582   2.152907   1.091711   2.159936   3.407483
    38  H    3.878412   3.406906   2.158130   1.092023   2.158994
    39  H    3.405870   3.888919   3.407916   2.162389   1.091842
    40  H    2.158825   3.410484   3.881185   3.407599   2.162566
                   21         22         23         24         25
    21  C    0.000000
    22  O    4.572050   0.000000
    23  H    6.630313   4.094958   0.000000
    24  H    3.010173   3.241168   3.931747   0.000000
    25  H    4.384863   3.005293   4.778558   2.503453   0.000000
    26  H    5.531944   2.572193   3.507735   3.075479   1.763306
    27  H    5.068761   4.861562   4.510466   2.583175   2.524712
    28  H    6.103630   4.608296   3.145680   3.159014   3.076331
    29  H    7.419673   6.250644   5.478635   4.899694   3.803189
    30  H    7.337829   5.147164   4.903164   4.776146   3.138787
    31  H    7.235236   5.013679   6.468414   5.431642   3.001447
    32  H    7.658539   6.394841   8.661854   6.747336   4.336398
    33  H    7.549926   7.749587   9.798647   7.138299   5.199355
    34  H    6.997190   7.952163   9.131400   6.335915   5.030212
    35  H    6.533643   6.890163   7.086236   4.913987   3.938383
    36  H    3.410478   4.868704   4.851271   3.168330   5.578452
    37  H    3.881022   6.911245   6.668872   4.331903   6.723562
    38  H    3.402957   7.559115   8.208400   4.871760   6.705589
    39  H    2.154360   6.526528   8.350690   4.496801   5.568435
    40  H    1.091979   4.328270   7.016281   3.433604   4.172977
                   26         27         28         29         30
    26  H    0.000000
    27  H    3.076408   0.000000
    28  H    2.512796   1.769547   0.000000
    29  H    3.780645   2.491423   2.442411   0.000000
    30  H    2.592162   3.070145   2.485535   1.766473   0.000000
    31  H    3.143564   4.334677   4.413830   3.629112   2.402738
    32  H    5.184870   5.859502   6.495314   5.437440   4.710413
    33  H    6.540954   6.038041   7.213820   5.885294   5.889567
    34  H    6.436672   4.776020   6.234167   4.801406   5.523388
    35  H    4.942421   2.700557   4.022252   2.583112   3.753715
    36  H    5.797074   5.422748   5.671580   7.770066   7.728410
    37  H    7.354125   5.920336   6.654136   8.335770   8.777681
    38  H    7.859440   6.073555   7.349430   8.442657   9.026896
    39  H    7.028696   5.796980   7.226006   8.045848   8.324783
    40  H    5.428225   5.348196   6.387172   7.522608   7.271206
                   31         32         33         34         35
    31  H    0.000000
    32  H    2.478190   0.000000
    33  H    4.306905   2.491476   0.000000
    34  H    4.966749   4.307086   2.492030   0.000000
    35  H    4.301845   4.966142   4.305880   2.476470   0.000000
    36  H    8.518358   9.773725  10.052275   9.128838   7.773090
    37  H    9.639104  10.619056  10.312997   8.937269   7.752069
    38  H    9.452025   9.871927   9.065176   7.661399   7.117067
    39  H    8.125353   8.090477   7.297318   6.450788   6.497898
    40  H    6.818157   7.000845   6.982433   6.776965   6.589687
                   36         37         38         39         40
    36  H    0.000000
    37  H    2.486057   0.000000
    38  H    4.309334   2.488627   0.000000
    39  H    4.977729   4.311389   2.490799   0.000000
    40  H    4.306223   4.972883   4.310215   2.489970   0.000000
 Stoichiometry    C18H18O3S
 Framework group  C1[X(C18H18O3S)]
 Deg. of freedom   114
 Full point group                 C1      NOp   1
 Largest Abelian subgroup         C1      NOp   1
 Largest concise Abelian subgroup C1      NOp   1
                         Standard orientation:                         
 ---------------------------------------------------------------------
 Center     Atomic      Atomic             Coordinates (Angstroms)
 Number     Number       Type             X           Y           Z
 ---------------------------------------------------------------------
      1          8           0        2.365589   -2.027586   -1.472317
      2          6           0        1.341269   -2.177228   -0.859914
      3          8           0        0.709955   -3.353152   -0.786505
      4          6           0        0.647212   -1.103284   -0.029158
      5          6           0       -0.872178   -1.234365    0.030626
      6          6           0       -1.515435   -1.199850   -1.350427
      7          6           0       -3.044738   -1.305651   -1.303852
      8          6           0       -3.691857   -0.165138   -0.554390
      9          6           0       -4.154240   -0.323856    0.756110
     10          6           0       -4.712261    0.746569    1.454664
     11          6           0       -4.816642    1.997905    0.850619
     12          6           0       -4.360299    2.170490   -0.456369
     13          6           0       -3.803357    1.098389   -1.148936
     14          6           0        1.260075   -1.212617    1.376432
     15         16           0        2.805826   -0.358701    1.735692
     16          6           0        2.888486    0.988964    0.566208
     17          6           0        3.623208    0.860914   -0.614975
     18          6           0        3.704243    1.939506   -1.494543
     19          6           0        3.052340    3.136432   -1.201713
     20          6           0        2.323090    3.264611   -0.018667
     21          6           0        2.249042    2.196375    0.871186
     22          8           0        0.802622   -1.924494    2.223942
     23          1           0        1.240890   -3.992620   -1.283116
     24          1           0        0.947214   -0.153575   -0.486797
     25          1           0       -1.266756   -0.414802    0.652227
     26          1           0       -1.132322   -2.169827    0.547046
     27          1           0       -1.232821   -0.266620   -1.867905
     28          1           0       -1.122059   -2.030197   -1.961846
     29          1           0       -3.434085   -1.336370   -2.334015
     30          1           0       -3.324477   -2.261696   -0.833287
     31          1           0       -4.073604   -1.301930    1.238139
     32          1           0       -5.067177    0.600448    2.477169
     33          1           0       -5.255429    2.836686    1.394923
     34          1           0       -4.442494    3.146297   -0.940347
     35          1           0       -3.451722    1.241775   -2.174881
     36          1           0        4.092737   -0.090868   -0.861059
     37          1           0        4.273570    1.836903   -2.420379
     38          1           0        3.113467    3.975661   -1.897753
     39          1           0        1.815345    4.202314    0.215913
     40          1           0        1.693430    2.290496    1.806523
 ---------------------------------------------------------------------
 Rotational constants (GHZ):           0.3346177           0.1590519           0.1343668
 Standard basis: def2SVP (5D, 7F)
 There are   424 symmetry adapted cartesian basis functions of A   symmetry.
 There are   402 symmetry adapted basis functions of A   symmetry.
   402 basis functions,   688 primitive gaussians,   424 cartesian basis functions
    83 alpha electrons       83 beta electrons
       nuclear repulsion energy      1850.4177964633 Hartrees.
 NAtoms=   40 NActive=   40 NUniq=   40 SFac= 1.00D+00 NAtFMM=   60 NAOKFM=F Big=F
 Integral buffers will be    131072 words long.
 Raffenetti 2 integral format.
 Two-electron integral symmetry is turned on.
 Nuclear repulsion after empirical dispersion term =     1850.3875790935 Hartrees.
 One-electron integrals computed using PRISM.
   1 Symmetry operations used in ECPInt.
 ECPInt:  NShTT=   17766 NPrTT=   65330 LenC2=   15712 LenP2D=   39247.
 LDataN:  DoStor=T MaxTD1= 4 Len=   56
 NBasis=   402 RedAO= T EigKep=  2.83D-04  NBF=   402
 NBsUse=   402 1.00D-06 EigRej= -1.00D+00 NBFU=   402
 Lowest energy guess from the checkpoint file:  "MAHT4_clust-19.chk"
 B after Tr=     0.000000    0.000000   -0.000000
         Rot=    1.000000    0.000000   -0.000000   -0.000000 Ang=   0.00 deg.
 B after Tr=     0.000000    0.000000   -0.000000
         Rot=    1.000000    0.000000   -0.000000   -0.000000 Ang=   0.00 deg.
 Requested convergence on RMS density matrix=1.00D-08 within 128 cycles.
 Requested convergence on MAX density matrix=1.00D-06.
 Requested convergence on             energy=1.00D-06.
 No special actions if energy rises.
 Integral accuracy reduced to 1.0D-05 until final iterations.
