 Entering Gaussian System, Link 0=/uufs/chpc.utah.edu/sys/installdir/gaussian16/C01/AVX/g16/g16
 Input=MAHT6_clust-14.com
 Output=MAHT6_clust-14.log
 Initial command:
 /uufs/chpc.utah.edu/sys/installdir/gaussian16/C01/AVX/g16/l1.exe "/scratch/general/vast/u0906557/notchpeak.peaks/Gau-139814.inp" -scrdir="/scratch/general/vast/u0906557/notchpeak.peaks/"
 Entering Link 1 = /uufs/chpc.utah.edu/sys/installdir/gaussian16/C01/AVX/g16/l1.exe PID=    141454.
  
 Copyright (c) 1988-2019, Gaussian, Inc.  All Rights Reserved.
  
 This is part of the Gaussian(R) 16 program.  It is based on
 the Gaussian(R) 09 system (copyright 2009, Gaussian, Inc.),
 the Gaussian(R) 03 system (copyright 2003, Gaussian, Inc.),
 the Gaussian(R) 98 system (copyright 1998, Gaussian, Inc.),
 the Gaussian(R) 94 system (copyright 1995, Gaussian, Inc.),
 the Gaussian 92(TM) system (copyright 1992, Gaussian, Inc.),
 the Gaussian 90(TM) system (copyright 1990, Gaussian, Inc.),
 the Gaussian 88(TM) system (copyright 1988, Gaussian, Inc.),
 the Gaussian 86(TM) system (copyright 1986, Carnegie Mellon
 University), and the Gaussian 82(TM) system (copyright 1983,
 Carnegie Mellon University). Gaussian is a federally registered
 trademark of Gaussian, Inc.
  
 This software contains proprietary and confidential information,
 including trade secrets, belonging to Gaussian, Inc.
  
 This software is provided under written license and may be
 used, copied, transmitted, or stored only in accord with that
 written license.
  
 The following legend is applicable only to US Government
 contracts under FAR:
  
                    RESTRICTED RIGHTS LEGEND
  
 Use, reproduction and disclosure by the US Government is
 subject to restrictions as set forth in subparagraphs (a)
 and (c) of the Commercial Computer Software - Restricted
 Rights clause in FAR 52.227-19.
  
 Gaussian, Inc.
 340 Quinnipiac St., Bldg. 40, Wallingford CT 06492
  
  
 ---------------------------------------------------------------
 Warning -- This program may not be used in any manner that
 competes with the business of Gaussian, Inc. or will provide
 assistance to any competitor of Gaussian, Inc.  The licensee
 of this program is prohibited from giving any competitor of
 Gaussian, Inc. access to this program.  By using this program,
 the user acknowledges that Gaussian, Inc. is engaged in the
 business of creating and licensing software in the field of
 computational chemistry and represents and warrants to the
 licensee that it is not a competitor of Gaussian, Inc. and that
 it will not use this program in any manner prohibited above.
 ---------------------------------------------------------------
  

 Cite this work as:
 Gaussian 16, Revision C.01,
 M. J. Frisch, G. W. Trucks, H. B. Schlegel, G. E. Scuseria, 
 M. A. Robb, J. R. Cheeseman, G. Scalmani, V. Barone, 
 G. A. Petersson, H. Nakatsuji, X. Li, M. Caricato, A. V. Marenich, 
 J. Bloino, B. G. Janesko, R. Gomperts, B. Mennucci, H. P. Hratchian, 
 J. V. Ortiz, A. F. Izmaylov, J. L. Sonnenberg, D. Williams-Young, 
 F. Ding, F. Lipparini, F. Egidi, J. Goings, B. Peng, A. Petrone, 
 T. Henderson, D. Ranasinghe, V. G. Zakrzewski, J. Gao, N. Rega, 
 G. Zheng, W. Liang, M. Hada, M. Ehara, K. Toyota, R. Fukuda, 
 J. Hasegawa, M. Ishida, T. Nakajima, Y. Honda, O. Kitao, H. Nakai, 
 T. Vreven, K. Throssell, J. A. Montgomery, Jr., J. E. Peralta, 
 F. Ogliaro, M. J. Bearpark, J. J. Heyd, E. N. Brothers, K. N. Kudin, 
 V. N. Staroverov, T. A. Keith, R. Kobayashi, J. Normand, 
 K. Raghavachari, A. P. Rendell, J. C. Burant, S. S. Iyengar, 
 J. Tomasi, M. Cossi, J. M. Millam, M. Klene, C. Adamo, R. Cammi, 
 J. W. Ochterski, R. L. Martin, K. Morokuma, O. Farkas, 
 J. B. Foresman, and D. J. Fox, Gaussian, Inc., Wallingford CT, 2019.
 
 ******************************************
 Gaussian 16:  ES64L-G16RevC.01  3-Jul-2019
                22-Sep-2023 
 ******************************************
 %NProcShared=40
 Will use up to   40 processors via shared memory.
 %Mem=64GB
 %chk=MAHT6_clust-14.chk
 ------------------------------------------------------
 #N OPT FREQ=NORAMAN Integral(Ultrafine) wB97XD def2SVP
 ------------------------------------------------------
 1/18=20,19=15,26=4,38=1/1,3;
 2/9=110,12=2,17=6,18=5,40=1/2;
 3/5=43,7=101,11=2,25=1,30=1,71=1,74=-58,75=-5/1,2,3;
 4//1;
 5/5=2,38=5/2;
 6/7=2,8=2,9=2,10=2,28=1/1;
 7//1,2,3,16;
 1/18=20,19=15,26=4/3(2);
 2/9=110/2;
 99//99;
 2/9=110/2;
 3/5=43,7=101,11=2,25=1,30=1,71=1,74=-58,75=-5/1,2,3;
 4/5=5,16=3,69=1/1;
 5/5=2,38=5/2;
 7//1,2,3,16;
 1/18=20,19=15,26=4/3(-5);
 2/9=110/2;
 6/7=2,8=2,9=2,10=2,19=2,28=1/1;
 99/9=1/99;
 --------------
 MAHT6_clust-14
 --------------
 Symbolic Z-matrix:
 Charge =  0 Multiplicity = 1
 O                    -3.3376    1.7555   -1.3866 
 C                    -3.5369    2.085    -0.2183 
 O                    -4.3875    3.082     0.1713 
 C                    -2.8409    1.4034    0.9765 
 C                    -3.8385    0.5508    1.8239 
 C                    -3.228    -0.6482    2.5893 
 C                    -2.3349   -0.286     3.7923 
 C                    -1.8869   -1.513     4.6044 
 C                    -0.9894   -1.1427    5.7931 
 C                    -1.9274    2.3703    1.7662 
 S                    -2.6809    3.2299    3.2143 
 C                    -1.282     4.0385    3.9249 
 C                    -0.9943    5.3582    3.575 
 C                     0.1066    5.9948    4.1425 
 C                     0.9059    5.3091    5.056 
 C                     0.6149    3.9924    5.4096 
 C                    -0.4853    3.3536    4.8437 
 O                    -0.7525    2.5255    1.4314 
 H                    -4.8233    3.5097   -0.5693 
 H                    -2.1614    0.6835    0.5146 
 H                    -4.5925    0.1255    1.1579 
 H                    -4.4146    1.172     2.5103 
 H                    -4.0503   -1.2691    2.9481 
 H                    -2.6684   -1.2765    1.8948 
 H                    -2.8713    0.4012    4.4481 
 H                    -1.4466    0.2421    3.4471 
 H                    -1.3514   -2.2068    3.9549 
 H                    -2.7622   -2.0505    4.9716 
 H                    -0.6893   -2.0329    6.3464 
 H                    -0.0817   -0.6373    5.4614 
 H                    -1.5063   -0.4797    6.4877 
 H                    -1.6155    5.8872    2.8668 
 H                     0.3397    7.0152    3.8763 
 H                     1.7595    5.8038    5.4954 
 H                     1.2395    3.4701    6.1192 
 H                    -0.7133    2.3329    5.1157 
 

 GradGradGradGradGradGradGradGradGradGradGradGradGradGradGradGradGradGrad
 Berny optimization.
 Initialization pass.
                           ----------------------------
                           !    Initial Parameters    !
                           ! (Angstroms and Degrees)  !
 --------------------------                            --------------------------
 ! Name  Definition              Value          Derivative Info.                !
 --------------------------------------------------------------------------------
 ! R1    R(1,2)                  1.2301         estimate D2E/DX2                !
 ! R2    R(2,3)                  1.3672         estimate D2E/DX2                !
 ! R3    R(2,4)                  1.5416         estimate D2E/DX2                !
 ! R4    R(3,19)                 0.9599         estimate D2E/DX2                !
 ! R5    R(4,5)                  1.5621         estimate D2E/DX2                !
 ! R6    R(4,10)                 1.5469         estimate D2E/DX2                !
 ! R7    R(4,20)                 1.0924         estimate D2E/DX2                !
 ! R8    R(5,6)                  1.5479         estimate D2E/DX2                !
 ! R9    R(5,21)                 1.0922         estimate D2E/DX2                !
 ! R10   R(5,22)                 1.0904         estimate D2E/DX2                !
 ! R11   R(6,7)                  1.5414         estimate D2E/DX2                !
 ! R12   R(6,23)                 1.0911         estimate D2E/DX2                !
 ! R13   R(6,24)                 1.091          estimate D2E/DX2                !
 ! R14   R(7,8)                  1.5381         estimate D2E/DX2                !
 ! R15   R(7,25)                 1.0909         estimate D2E/DX2                !
 ! R16   R(7,26)                 1.0896         estimate D2E/DX2                !
 ! R17   R(8,9)                  1.5348         estimate D2E/DX2                !
 ! R18   R(8,27)                 1.0909         estimate D2E/DX2                !
 ! R19   R(8,28)                 1.0908         estimate D2E/DX2                !
 ! R20   R(9,29)                 1.0903         estimate D2E/DX2                !
 ! R21   R(9,30)                 1.0906         estimate D2E/DX2                !
 ! R22   R(9,31)                 1.0905         estimate D2E/DX2                !
 ! R23   R(10,11)                1.8449         estimate D2E/DX2                !
 ! R24   R(10,18)                1.2315         estimate D2E/DX2                !
 ! R25   R(11,12)                1.7651         estimate D2E/DX2                !
 ! R26   R(12,13)                1.3953         estimate D2E/DX2                !
 ! R27   R(12,17)                1.3957         estimate D2E/DX2                !
 ! R28   R(13,14)                1.3926         estimate D2E/DX2                !
 ! R29   R(13,32)                1.0804         estimate D2E/DX2                !
 ! R30   R(14,15)                1.3941         estimate D2E/DX2                !
 ! R31   R(14,33)                1.08           estimate D2E/DX2                !
 ! R32   R(15,16)                1.3941         estimate D2E/DX2                !
 ! R33   R(15,34)                1.08           estimate D2E/DX2                !
 ! R34   R(16,17)                1.3924         estimate D2E/DX2                !
 ! R35   R(16,35)                1.08           estimate D2E/DX2                !
 ! R36   R(17,36)                1.0806         estimate D2E/DX2                !
 ! A1    A(1,2,3)              124.5242         estimate D2E/DX2                !
 ! A2    A(1,2,4)              122.9909         estimate D2E/DX2                !
 ! A3    A(3,2,4)              112.4849         estimate D2E/DX2                !
 ! A4    A(2,3,19)             112.8006         estimate D2E/DX2                !
 ! A5    A(2,4,5)              111.9271         estimate D2E/DX2                !
 ! A6    A(2,4,10)             112.6999         estimate D2E/DX2                !
 ! A7    A(2,4,20)             104.1519         estimate D2E/DX2                !
 ! A8    A(5,4,10)             116.1894         estimate D2E/DX2                !
 ! A9    A(5,4,20)             105.4814         estimate D2E/DX2                !
 ! A10   A(10,4,20)            105.0963         estimate D2E/DX2                !
 ! A11   A(4,5,6)              116.0478         estimate D2E/DX2                !
 ! A12   A(4,5,21)             108.8209         estimate D2E/DX2                !
 ! A13   A(4,5,22)             111.5895         estimate D2E/DX2                !
 ! A14   A(6,5,21)             105.7927         estimate D2E/DX2                !
 ! A15   A(6,5,22)             109.779          estimate D2E/DX2                !
 ! A16   A(21,5,22)            103.9428         estimate D2E/DX2                !
 ! A17   A(5,6,7)              115.62           estimate D2E/DX2                !
 ! A18   A(5,6,23)             107.8276         estimate D2E/DX2                !
 ! A19   A(5,6,24)             109.4881         estimate D2E/DX2                !
 ! A20   A(7,6,23)             108.2847         estimate D2E/DX2                !
 ! A21   A(7,6,24)             109.5694         estimate D2E/DX2                !
 ! A22   A(23,6,24)            105.5565         estimate D2E/DX2                !
 ! A23   A(6,7,8)              113.1647         estimate D2E/DX2                !
 ! A24   A(6,7,25)             109.4083         estimate D2E/DX2                !
 ! A25   A(6,7,26)             109.8159         estimate D2E/DX2                !
 ! A26   A(8,7,25)             109.1683         estimate D2E/DX2                !
 ! A27   A(8,7,26)             108.4497         estimate D2E/DX2                !
 ! A28   A(25,7,26)            106.6197         estimate D2E/DX2                !
 ! A29   A(7,8,9)              112.7543         estimate D2E/DX2                !
 ! A30   A(7,8,27)             109.6327         estimate D2E/DX2                !
 ! A31   A(7,8,28)             109.7002         estimate D2E/DX2                !
 ! A32   A(9,8,27)             109.1187         estimate D2E/DX2                !
 ! A33   A(9,8,28)             109.1108         estimate D2E/DX2                !
 ! A34   A(27,8,28)            106.3165         estimate D2E/DX2                !
 ! A35   A(8,9,29)             110.917          estimate D2E/DX2                !
 ! A36   A(8,9,30)             111.2815         estimate D2E/DX2                !
 ! A37   A(8,9,31)             111.2734         estimate D2E/DX2                !
 ! A38   A(29,9,30)            107.6765         estimate D2E/DX2                !
 ! A39   A(29,9,31)            107.676          estimate D2E/DX2                !
 ! A40   A(30,9,31)            107.8479         estimate D2E/DX2                !
 ! A41   A(4,10,11)            116.7912         estimate D2E/DX2                !
 ! A42   A(4,10,18)            120.2234         estimate D2E/DX2                !
 ! A43   A(11,10,18)           122.9787         estimate D2E/DX2                !
 ! A44   A(10,11,12)           101.8733         estimate D2E/DX2                !
 ! A45   A(11,12,13)           119.7184         estimate D2E/DX2                !
 ! A46   A(11,12,17)           119.5119         estimate D2E/DX2                !
 ! A47   A(13,12,17)           120.7651         estimate D2E/DX2                !
 ! A48   A(12,13,14)           119.5501         estimate D2E/DX2                !
 ! A49   A(12,13,32)           120.5928         estimate D2E/DX2                !
 ! A50   A(14,13,32)           119.8568         estimate D2E/DX2                !
 ! A51   A(13,14,15)           119.6983         estimate D2E/DX2                !
 ! A52   A(13,14,33)           120.1381         estimate D2E/DX2                !
 ! A53   A(15,14,33)           120.1636         estimate D2E/DX2                !
 ! A54   A(14,15,16)           120.736          estimate D2E/DX2                !
 ! A55   A(14,15,34)           119.6328         estimate D2E/DX2                !
 ! A56   A(16,15,34)           119.6312         estimate D2E/DX2                !
 ! A57   A(15,16,17)           119.681          estimate D2E/DX2                !
 ! A58   A(15,16,35)           120.1784         estimate D2E/DX2                !
 ! A59   A(17,16,35)           120.1406         estimate D2E/DX2                !
 ! A60   A(12,17,16)           119.5678         estimate D2E/DX2                !
 ! A61   A(12,17,36)           120.5811         estimate D2E/DX2                !
 ! A62   A(16,17,36)           119.8508         estimate D2E/DX2                !
 ! D1    D(1,2,3,19)            -0.0261         estimate D2E/DX2                !
 ! D2    D(4,2,3,19)           179.9893         estimate D2E/DX2                !
 ! D3    D(1,2,4,5)           -110.2368         estimate D2E/DX2                !
 ! D4    D(1,2,4,10)           116.5989         estimate D2E/DX2                !
 ! D5    D(1,2,4,20)             3.2319         estimate D2E/DX2                !
 ! D6    D(3,2,4,5)             69.748          estimate D2E/DX2                !
 ! D7    D(3,2,4,10)           -63.4162         estimate D2E/DX2                !
 ! D8    D(3,2,4,20)          -176.7833         estimate D2E/DX2                !
 ! D9    D(2,4,5,6)            152.5755         estimate D2E/DX2                !
 ! D10   D(2,4,5,21)            33.4564         estimate D2E/DX2                !
 ! D11   D(2,4,5,22)           -80.6633         estimate D2E/DX2                !
 ! D12   D(10,4,5,6)           -76.0043         estimate D2E/DX2                !
 ! D13   D(10,4,5,21)          164.8766         estimate D2E/DX2                !
 ! D14   D(10,4,5,22)           50.7569         estimate D2E/DX2                !
 ! D15   D(20,4,5,6)            39.9331         estimate D2E/DX2                !
 ! D16   D(20,4,5,21)          -79.186          estimate D2E/DX2                !
 ! D17   D(20,4,5,22)          166.6943         estimate D2E/DX2                !
 ! D18   D(2,4,10,11)           93.0627         estimate D2E/DX2                !
 ! D19   D(2,4,10,18)          -87.8468         estimate D2E/DX2                !
 ! D20   D(5,4,10,11)          -37.9957         estimate D2E/DX2                !
 ! D21   D(5,4,10,18)          141.0948         estimate D2E/DX2                !
 ! D22   D(20,4,10,11)        -154.1486         estimate D2E/DX2                !
 ! D23   D(20,4,10,18)          24.942          estimate D2E/DX2                !
 ! D24   D(4,5,6,7)             70.9228         estimate D2E/DX2                !
 ! D25   D(4,5,6,23)          -167.7637         estimate D2E/DX2                !
 ! D26   D(4,5,6,24)           -53.3927         estimate D2E/DX2                !
 ! D27   D(21,5,6,7)          -168.3195         estimate D2E/DX2                !
 ! D28   D(21,5,6,23)          -47.006          estimate D2E/DX2                !
 ! D29   D(21,5,6,24)           67.365          estimate D2E/DX2                !
 ! D30   D(22,5,6,7)           -56.7387         estimate D2E/DX2                !
 ! D31   D(22,5,6,23)           64.5748         estimate D2E/DX2                !
 ! D32   D(22,5,6,24)          178.9458         estimate D2E/DX2                !
 ! D33   D(5,6,7,8)            173.5608         estimate D2E/DX2                !
 ! D34   D(5,6,7,25)            51.5958         estimate D2E/DX2                !
 ! D35   D(5,6,7,26)           -65.1023         estimate D2E/DX2                !
 ! D36   D(23,6,7,8)            52.4935         estimate D2E/DX2                !
 ! D37   D(23,6,7,25)          -69.4716         estimate D2E/DX2                !
 ! D38   D(23,6,7,26)          173.8303         estimate D2E/DX2                !
 ! D39   D(24,6,7,8)           -62.1659         estimate D2E/DX2                !
 ! D40   D(24,6,7,25)          175.869          estimate D2E/DX2                !
 ! D41   D(24,6,7,26)           59.1709         estimate D2E/DX2                !
 ! D42   D(6,7,8,9)            179.5493         estimate D2E/DX2                !
 ! D43   D(6,7,8,27)            57.7658         estimate D2E/DX2                !
 ! D44   D(6,7,8,28)           -58.6291         estimate D2E/DX2                !
 ! D45   D(25,7,8,9)           -58.3514         estimate D2E/DX2                !
 ! D46   D(25,7,8,27)          179.8651         estimate D2E/DX2                !
 ! D47   D(25,7,8,28)           63.4702         estimate D2E/DX2                !
 ! D48   D(26,7,8,9)            57.4456         estimate D2E/DX2                !
 ! D49   D(26,7,8,27)          -64.3379         estimate D2E/DX2                !
 ! D50   D(26,7,8,28)          179.2672         estimate D2E/DX2                !
 ! D51   D(7,8,9,29)          -179.9582         estimate D2E/DX2                !
 ! D52   D(7,8,9,30)           -60.1085         estimate D2E/DX2                !
 ! D53   D(7,8,9,31)            60.1981         estimate D2E/DX2                !
 ! D54   D(27,8,9,29)          -57.8847         estimate D2E/DX2                !
 ! D55   D(27,8,9,30)           61.965          estimate D2E/DX2                !
 ! D56   D(27,8,9,31)         -177.7283         estimate D2E/DX2                !
 ! D57   D(28,8,9,29)           57.8877         estimate D2E/DX2                !
 ! D58   D(28,8,9,30)          177.7374         estimate D2E/DX2                !
 ! D59   D(28,8,9,31)          -61.9559         estimate D2E/DX2                !
 ! D60   D(4,10,11,12)         173.0302         estimate D2E/DX2                !
 ! D61   D(18,10,11,12)         -6.033          estimate D2E/DX2                !
 ! D62   D(10,11,12,13)         93.8891         estimate D2E/DX2                !
 ! D63   D(10,11,12,17)        -86.8757         estimate D2E/DX2                !
 ! D64   D(11,12,13,14)        179.7009         estimate D2E/DX2                !
 ! D65   D(11,12,13,32)         -0.4981         estimate D2E/DX2                !
 ! D66   D(17,12,13,14)          0.4755         estimate D2E/DX2                !
 ! D67   D(17,12,13,32)       -179.7235         estimate D2E/DX2                !
 ! D68   D(11,12,17,16)       -179.7061         estimate D2E/DX2                !
 ! D69   D(11,12,17,36)          0.5135         estimate D2E/DX2                !
 ! D70   D(13,12,17,16)         -0.4791         estimate D2E/DX2                !
 ! D71   D(13,12,17,36)        179.7405         estimate D2E/DX2                !
 ! D72   D(12,13,14,15)         -0.1995         estimate D2E/DX2                !
 ! D73   D(12,13,14,33)        179.8247         estimate D2E/DX2                !
 ! D74   D(32,13,14,15)        179.9979         estimate D2E/DX2                !
 ! D75   D(32,13,14,33)          0.0222         estimate D2E/DX2                !
 ! D76   D(13,14,15,16)         -0.0682         estimate D2E/DX2                !
 ! D77   D(13,14,15,34)        179.9937         estimate D2E/DX2                !
 ! D78   D(33,14,15,16)        179.9075         estimate D2E/DX2                !
 ! D79   D(33,14,15,34)         -0.0306         estimate D2E/DX2                !
 ! D80   D(14,15,16,17)          0.0647         estimate D2E/DX2                !
 ! D81   D(14,15,16,35)       -179.9224         estimate D2E/DX2                !
 ! D82   D(34,15,16,17)       -179.9972         estimate D2E/DX2                !
 ! D83   D(34,15,16,35)          0.0157         estimate D2E/DX2                !
 ! D84   D(15,16,17,12)          0.2065         estimate D2E/DX2                !
 ! D85   D(15,16,17,36)        179.9886         estimate D2E/DX2                !
 ! D86   D(35,16,17,12)       -179.8064         estimate D2E/DX2                !
 ! D87   D(35,16,17,36)         -0.0243         estimate D2E/DX2                !
 --------------------------------------------------------------------------------
 Trust Radius=3.00D-01 FncErr=1.00D-07 GrdErr=1.00D-06 EigMax=2.50D+02 EigMin=1.00D-04
 Number of steps in this run=    195 maximum allowed number of steps=    216.
 GradGradGradGradGradGradGradGradGradGradGradGradGradGradGradGradGradGrad

                          Input orientation:                          
 ---------------------------------------------------------------------
 Center     Atomic      Atomic             Coordinates (Angstroms)
 Number     Number       Type             X           Y           Z
 ---------------------------------------------------------------------
      1          8           0       -3.337600    1.755500   -1.386600
      2          6           0       -3.536900    2.085000   -0.218300
      3          8           0       -4.387500    3.082000    0.171300
      4          6           0       -2.840900    1.403400    0.976500
      5          6           0       -3.838500    0.550800    1.823900
      6          6           0       -3.228000   -0.648200    2.589300
      7          6           0       -2.334900   -0.286000    3.792300
      8          6           0       -1.886900   -1.513000    4.604400
      9          6           0       -0.989400   -1.142700    5.793100
     10          6           0       -1.927400    2.370300    1.766200
     11         16           0       -2.680900    3.229900    3.214300
     12          6           0       -1.282000    4.038500    3.924900
     13          6           0       -0.994300    5.358200    3.575000
     14          6           0        0.106600    5.994800    4.142500
     15          6           0        0.905900    5.309100    5.056000
     16          6           0        0.614900    3.992400    5.409600
     17          6           0       -0.485300    3.353600    4.843700
     18          8           0       -0.752500    2.525500    1.431400
     19          1           0       -4.823300    3.509700   -0.569300
     20          1           0       -2.161400    0.683500    0.514600
     21          1           0       -4.592500    0.125500    1.157900
     22          1           0       -4.414600    1.172000    2.510300
     23          1           0       -4.050300   -1.269100    2.948100
     24          1           0       -2.668400   -1.276500    1.894800
     25          1           0       -2.871300    0.401200    4.448100
     26          1           0       -1.446600    0.242100    3.447100
     27          1           0       -1.351400   -2.206800    3.954900
     28          1           0       -2.762200   -2.050500    4.971600
     29          1           0       -0.689300   -2.032900    6.346400
     30          1           0       -0.081700   -0.637300    5.461400
     31          1           0       -1.506300   -0.479700    6.487700
     32          1           0       -1.615500    5.887200    2.866800
     33          1           0        0.339700    7.015200    3.876300
     34          1           0        1.759500    5.803800    5.495400
     35          1           0        1.239500    3.470100    6.119200
     36          1           0       -0.713300    2.332900    5.115700
 ---------------------------------------------------------------------
                    Distance matrix (angstroms):
                    1          2          3          4          5
     1  O    0.000000
     2  C    1.230128   0.000000
     3  O    2.299771   1.367230   0.000000
     4  C    2.440272   1.541604   2.420334   0.000000
     5  C    3.465474   2.572025   3.072371   1.562120   0.000000
     6  C    4.647318   3.930448   4.594078   2.638187   1.547950
     7  C    5.656336   4.811586   5.354272   3.322475   2.614507
     8  C    6.977084   6.239114   6.857069   4.751543   3.974820
     9  C    8.090840   7.283182   7.810237   5.754156   5.171060
    10  C    3.508104   2.571017   3.017004   1.546934   2.639358
    11  S    4.875796   3.718370   3.492020   2.893000   3.232774
    12  C    6.135928   5.105570   4.964729   4.250527   4.807696
    13  C    6.564143   5.618521   5.317901   5.079624   5.853795
    14  C    7.772073   6.897696   6.667216   6.308111   7.111741
    15  C    8.493672   7.612590   7.539254   6.777560   7.456354
    16  C    8.174002   7.249060   7.300180   6.188526   6.673427
    17  C    7.036063   6.045283   6.093624   4.930250   5.312140
    18  O    3.900867   3.266257   3.887257   2.414013   3.684683
    19  H    2.439775   1.951357   0.959863   3.279620   3.930945
    20  H    2.479353   2.096031   3.290316   1.092395   2.131793
    21  H    3.272026   2.616841   3.123507   2.175784   1.092223
    22  H    4.084878   3.008186   3.019893   2.209665   1.090379
    23  H    5.333458   4.641083   5.172658   3.534418   2.149586
    24  H    4.517570   4.064378   4.992222   2.838115   2.170987
    25  H    6.007935   5.005347   5.270348   3.613494   2.800764
    26  H    5.406562   4.604432   5.238778   3.065380   2.907105
    27  H    6.940925   6.372720   7.176694   4.911519   4.281493
    28  H    7.432592   6.681136   7.212977   5.281708   4.222937
    29  H    9.009148   8.255980   8.830104   6.728549   6.086540
    30  H    7.951194   7.183893   7.769058   5.647298   5.362512
    31  H    8.387752   7.461331   7.802815   5.974994   5.315272
    32  H    6.174786   5.259881   4.776908   5.017898   5.874226
    33  H    8.299705   7.490037   7.179381   7.072295   7.966064
    34  H    9.472649   8.632942   8.575538   7.806898   8.509496
    35  H    8.956938   8.055831   8.197028   6.882462   7.263470
    36  H    7.035641   6.040342   6.205480   4.745907   4.876341
                    6          7          8          9         10
     6  C    0.000000
     7  C    1.541436   0.000000
     8  C    2.570419   1.538096   0.000000
     9  C    3.939568   2.558809   1.534808   0.000000
    10  C    3.388273   3.365571   4.810098   5.425582   0.000000
    11  S    3.966056   3.579854   5.005788   5.350795   1.844903
    12  C    5.247466   4.452806   5.625547   5.515489   2.803465
    13  C    6.483661   5.805293   7.004983   6.868893   3.615243
    14  C    7.593513   6.747741   7.781674   7.407402   4.787584
    15  C    7.659188   6.588237   7.385440   6.764703   5.242797
    16  C    6.652604   5.442581   6.100556   5.393524   4.729573
    17  C    5.349685   4.215821   5.070063   4.623007   3.538013
    18  O    4.188222   3.997796   5.259684   5.704055   1.231490
    19  H    5.459841   6.294682   7.785700   8.764916   3.890891
    20  H    2.686157   3.422477   4.650422   5.707114   2.113422
    21  H    2.123530   3.493731   4.677961   6.006308   3.537218
    22  H    2.174256   2.845073   4.240725   5.278883   2.859331
    23  H    1.091069   2.149827   2.735529   4.180803   4.375937
    24  H    1.090983   2.166291   2.829948   4.246609   3.723543
    25  H    2.164166   1.090891   2.158155   2.781043   3.458452
    26  H    2.168373   1.089555   2.147925   2.762321   2.754238
    27  H    2.795662   2.164066   1.090857   2.154607   5.106078
    28  H    2.803349   2.164900   1.090822   2.154480   5.524034
    29  H    4.741117   3.504723   2.176949   1.090255   6.472966
    30  H    4.260080   2.825990   2.181753   1.090584   5.109478
    31  H    4.264993   2.826531   2.181601   1.090515   5.531039
    32  H    6.737107   6.283509   7.606305   7.640336   3.698268
    33  H    8.550588   7.776121   8.844098   8.484808   5.582774
    34  H    8.657302   7.533281   8.223483   7.476559   6.268101
    35  H    7.027030   5.683228   6.074560   5.133445   5.494308
    36  H    4.646867   3.352553   4.053358   3.551746   3.562947
                   11         12         13         14         15
    11  S    0.000000
    12  C    1.765137   0.000000
    13  C    2.739413   1.395281   0.000000
    14  C    4.034400   2.408873   1.392586   0.000000
    15  C    4.536526   2.771411   2.409675   1.394112   0.000000
    16  C    4.032747   2.409292   2.796550   2.423534   1.394063
    17  C    2.736952   1.395712   2.426335   2.796062   2.409251
    18  O    2.719125   2.964301   3.560573   4.485996   4.861733
    19  H    4.357040   5.746153   5.937459   7.258147   8.228340
    20  H    3.747321   4.864105   5.707976   6.820219   7.171389
    21  H    4.185725   5.824712   6.794893   8.089379   8.502782
    22  H    2.781418   4.475611   5.509656   6.809165   7.204436
    23  H    4.710321   6.065331   7.324838   8.454032   8.501757
    24  H    4.695623   5.855991   7.045916   8.100900   8.132585
    25  H    3.091934   4.003694   5.371897   6.344260   6.222882
    26  H    3.241086   3.829888   5.137647   5.999131   5.813545
    27  H    5.645686   6.245758   7.582946   8.332299   7.924429
    28  H    5.565729   6.353148   7.743694   8.581624   8.223490
    29  H    6.439999   6.563296   7.899496   8.362691   7.623304
    30  H    5.173059   5.066030   6.351170   6.764592   6.041471
    31  H    5.084876   5.199268   6.544237   7.072521   6.432626
    32  H    2.883934   2.156036   1.080406   2.145837   3.388843
    33  H    4.887818   3.390135   2.148485   1.080007   2.150128
    34  H    5.616541   3.851425   3.386726   2.144504   1.080015
    35  H    4.885251   3.390574   3.876563   3.400723   2.150257
    36  H    2.879476   2.156501   3.406634   3.876708   3.388678
                   16         17         18         19         20
    16  C    0.000000
    17  C    1.392389   0.000000
    18  O    4.455071   3.521496   0.000000
    19  H    8.096559   6.938529   4.641429   0.000000
    20  H    6.528222   5.355357   2.493689   4.030875   0.000000
    21  H    7.755442   6.393344   4.536563   3.806481   2.575936
    22  H    6.454182   5.063944   4.050551   3.887906   3.049321
    23  H    7.450265   6.137742   5.251176   5.983858   3.647261
    24  H    7.134086   5.907602   4.282595   5.798542   2.450225
    25  H    5.096547   3.816564   4.254697   6.216702   4.007003
    26  H    4.708072   3.543448   3.123898   6.181487   3.050464
    27  H    6.664276   5.697205   5.396424   8.074704   4.565698
    28  H    6.936374   5.865571   6.124678   8.115758   5.263133
    29  H    6.235605   5.595901   6.703747   9.779431   6.599682
    30  H    4.682100   4.058538   5.166641   8.720649   5.526346
    31  H    5.065715   4.294108   5.930060   8.758941   6.120467
    32  H    3.876955   3.406555   3.755818   5.267758   5.736667
    33  H    3.400598   3.876055   5.227604   7.662145   7.592559
    34  H    2.144444   3.386343   5.794264   9.239953   8.148576
    35  H    1.080025   2.148350   5.180328   9.027466   7.123398
    36  H    2.145794   1.080646   3.689539   7.113099   5.097807
                   21         22         23         24         25
    21  H    0.000000
    22  H    1.719243   0.000000
    23  H    2.333175   2.506662   0.000000
    24  H    2.492145   3.069724   1.737568   0.000000
    25  H    3.723433   2.594413   2.535733   3.061893   0.000000
    26  H    3.892392   3.248281   3.051554   2.491702   1.748452
    27  H    4.875199   4.783968   3.029355   2.616096   3.058595
    28  H    4.757024   4.378690   2.522764   3.174047   2.509340
    29  H    6.842090   6.234173   4.840264   4.930083   3.780147
    30  H    6.280867   5.545862   4.739793   4.451992   3.144380
    31  H    6.188511   5.196733   4.429882   4.804175   2.607523
    32  H    6.706717   5.495013   7.559596   7.305613   5.845831
    33  H    8.898554   7.655868   9.421427   9.040315   7.374447
    34  H    9.560591   8.275500   9.500970   9.094024   7.192304
    35  H    8.355422   7.090435   7.778038   7.459722   5.395313
    36  H    5.965315   4.672839   5.367352   5.217699   2.972225
                   26         27         28         29         30
    26  H    0.000000
    27  H    2.502805   0.000000
    28  H    3.051380   1.745985   0.000000
    29  H    3.762322   2.487547   2.487428   0.000000
    30  H    2.587219   2.518930   3.069547   1.760711   0.000000
    31  H    3.125669   3.069519   2.518582   1.760649   1.762843
    32  H    5.677361   8.171080   8.291694   8.700198   7.187043
    33  H    7.017832   9.376102   9.644085   9.435483   7.826294
    34  H    6.738480   8.730438   9.078005   8.254374   6.699175
    35  H    4.977473   6.604858   6.914305   5.835657   4.364517
    36  H    2.773698   4.729007   4.840759   4.536012   3.056226
                   31         32         33         34         35
    31  H    0.000000
    32  H    7.325316   0.000000
    33  H    8.148660   2.472707   0.000000
    34  H    7.150698   4.278682   2.470791   0.000000
    35  H    4.824534   4.956965   4.290452   2.470968   0.000000
    36  H    3.228305   4.301693   4.956698   4.278558   2.472582
                   36
    36  H    0.000000
 Stoichiometry    C14H18O3S
 Framework group  C1[X(C14H18O3S)]
 Deg. of freedom   102
 Full point group                 C1      NOp   1
 Largest Abelian subgroup         C1      NOp   1
 Largest concise Abelian subgroup C1      NOp   1
                         Standard orientation:                         
 ---------------------------------------------------------------------
 Center     Atomic      Atomic             Coordinates (Angstroms)
 Number     Number       Type             X           Y           Z
 ---------------------------------------------------------------------
      1          8           0       -3.546191   -2.563591    1.121305
      2          6           0       -2.775333   -2.103135    0.280487
      3          8           0       -2.414844   -2.742682   -0.872918
      4          6           0       -2.106023   -0.721692    0.422553
      5          6           0       -2.668363    0.307815   -0.609002
      6          6           0       -2.606968    1.795805   -0.186785
      7          6           0       -1.198809    2.421969   -0.154677
      8          6           0       -1.215815    3.935725    0.117338
      9          6           0        0.191261    4.547362    0.158235
     10          6           0       -0.565213   -0.812643    0.525699
     11         16           0        0.383985   -0.661883   -1.049090
     12          6           0        2.049090   -0.608187   -0.465780
     13          6           0        2.793935   -1.785621   -0.390498
     14          6           0        4.109314   -1.738307    0.064293
     15          6           0        4.668410   -0.516207    0.435008
     16          6           0        3.925722    0.660791    0.354364
     17          6           0        2.610339    0.616266   -0.100097
     18          8           0       -0.025041   -0.961338    1.622363
     19          1           0       -2.828989   -3.603595   -0.965921
     20          1           0       -2.436042   -0.364337    1.400670
     21          1           0       -3.724762    0.091442   -0.782656
     22          1           0       -2.209932    0.183553   -1.590493
     23          1           0       -3.219710    2.366957   -0.885903
     24          1           0       -3.083413    1.917766    0.787057
     25          1           0       -0.696933    2.234417   -1.104934
     26          1           0       -0.597711    1.939934    0.615682
     27          1           0       -1.718465    4.132134    1.065355
     28          1           0       -1.802598    4.440838   -0.651063
     29          1           0        0.144336    5.619006    0.353263
     30          1           0        0.797231    4.094079    0.943543
     31          1           0        0.711936    4.405759   -0.789430
     32          1           0        2.358093   -2.731336   -0.678495
     33          1           0        4.693593   -2.644308    0.129062
     34          1           0        5.688610   -0.480749    0.787669
     35          1           0        4.368260    1.602842    0.642729
     36          1           0        2.032056    1.526959   -0.163532
 ---------------------------------------------------------------------
 Rotational constants (GHZ):           0.4028175           0.2782924           0.1815863
 Standard basis: def2SVP (5D, 7F)
 There are   364 symmetry adapted cartesian basis functions of A   symmetry.
 There are   346 symmetry adapted basis functions of A   symmetry.
   346 basis functions,   588 primitive gaussians,   364 cartesian basis functions
    71 alpha electrons       71 beta electrons
       nuclear repulsion energy      1435.1966632652 Hartrees.
 NAtoms=   36 NActive=   36 NUniq=   36 SFac= 1.00D+00 NAtFMM=   60 NAOKFM=F Big=F
 Integral buffers will be    131072 words long.
 Raffenetti 2 integral format.
 Two-electron integral symmetry is turned on.
 Nuclear repulsion after empirical dispersion term =     1435.1706142718 Hartrees.
 One-electron integrals computed using PRISM.
   1 Symmetry operations used in ECPInt.
 ECPInt:  NShTT=   13530 NPrTT=   49126 LenC2=   12261 LenP2D=   30978.
 LDataN:  DoStor=T MaxTD1= 4 Len=   56
 NBasis=   346 RedAO= T EigKep=  2.87D-04  NBF=   346
 NBsUse=   346 1.00D-06 EigRej= -1.00D+00 NBFU=   346
 ExpMin= 1.22D-01 ExpMax= 9.18D+03 ExpMxC= 1.38D+03 IAcc=3 IRadAn=         5 AccDes= 0.00D+00
 Harris functional with IExCor= 4639 and IRadAn=       5 diagonalized for initial guess.
 HarFok:  IExCor= 4639 AccDes= 0.00D+00 IRadAn=         5 IDoV= 1 UseB2=F ITyADJ=14
 ICtDFT=  3500011 ScaDFX=  1.000000  1.000000  1.000000  1.000000
 FoFCou: FMM=F IPFlag=           0 FMFlag=      100000 FMFlg1=           0
         NFxFlg=           0 DoJE=T BraDBF=F KetDBF=T FulRan=T
         wScrn=  0.000000 ICntrl=       500 IOpCl=  0 I1Cent=   200000004 NGrid=           0
         NMat0=    1 NMatS0=      1 NMatT0=    0 NMatD0=    1 NMtDS0=    0 NMtDT0=    0
 Petite list used in FoFCou.
 Requested convergence on RMS density matrix=1.00D-08 within 128 cycles.
 Requested convergence on MAX density matrix=1.00D-06.
 Requested convergence on             energy=1.00D-06.
 No special actions if energy rises.
 Integral accuracy reduced to 1.0D-05 until final iterations.
 Initial convergence to 1.0D-05 achieved.  Increase integral accuracy.
 SCF Done:  E(RwB97XD) =  -1167.28751101     A.U. after   16 cycles
            NFock= 16  Conv=0.51D-08     -V/T= 2.0078

 **********************************************************************

            Population analysis using the SCF Density.

 **********************************************************************

 Orbital symmetries:
       Occupied  (A) (A) (A) (A) (A) (A) (A) (A) (A) (A) (A) (A)
                 (A) (A) (A) (A) (A) (A) (A) (A) (A) (A) (A) (A)
                 (A) (A) (A) (A) (A) (A) (A) (A) (A) (A) (A) (A)
                 (A) (A) (A) (A) (A) (A) (A) (A) (A) (A) (A) (A)
                 (A) (A) (A) (A) (A) (A) (A) (A) (A) (A) (A) (A)
                 (A) (A) (A) (A) (A) (A) (A) (A) (A) (A) (A)
       Virtual   (A) (A) (A) (A) (A) (A) (A) (A) (A) (A) (A) (A)
                 (A) (A) (A) (A) (A) (A) (A) (A) (A) (A) (A) (A)
                 (A) (A) (A) (A) (A) (A) (A) (A) (A) (A) (A) (A)
                 (A) (A) (A) (A) (A) (A) (A) (A) (A) (A) (A) (A)
                 (A) (A) (A) (A) (A) (A) (A) (A) (A) (A) (A) (A)
                 (A) (A) (A) (A) (A) (A) (A) (A) (A) (A) (A) (A)
                 (A) (A) (A) (A) (A) (A) (A) (A) (A) (A) (A) (A)
                 (A) (A) (A) (A) (A) (A) (A) (A) (A) (A) (A) (A)
                 (A) (A) (A) (A) (A) (A) (A) (A) (A) (A) (A) (A)
                 (A) (A) (A) (A) (A) (A) (A) (A) (A) (A) (A) (A)
                 (A) (A) (A) (A) (A) (A) (A) (A) (A) (A) (A) (A)
                 (A) (A) (A) (A) (A) (A) (A) (A) (A) (A) (A) (A)
                 (A) (A) (A) (A) (A) (A) (A) (A) (A) (A) (A) (A)
                 (A) (A) (A) (A) (A) (A) (A) (A) (A) (A) (A) (A)
                 (A) (A) (A) (A) (A) (A) (A) (A) (A) (A) (A) (A)
                 (A) (A) (A) (A) (A) (A) (A) (A) (A) (A) (A) (A)
                 (A) (A) (A) (A) (A) (A) (A) (A) (A) (A) (A) (A)
                 (A) (A) (A) (A) (A) (A) (A) (A) (A) (A) (A) (A)
                 (A) (A) (A) (A) (A) (A) (A) (A) (A) (A) (A) (A)
                 (A) (A) (A) (A) (A) (A) (A) (A) (A) (A) (A) (A)
                 (A) (A) (A) (A) (A) (A) (A) (A) (A) (A) (A) (A)
                 (A) (A) (A) (A) (A) (A) (A) (A) (A) (A) (A) (A)
                 (A) (A) (A) (A) (A) (A) (A) (A) (A) (A) (A)
 The electronic state is 1-A.
 Alpha  occ. eigenvalues --  -89.02684 -19.31812 -19.26673 -19.25952 -10.45264
 Alpha  occ. eigenvalues --  -10.42573 -10.34112 -10.33746 -10.31783 -10.31632
 Alpha  occ. eigenvalues --  -10.31595 -10.31366 -10.31237 -10.31217 -10.30315
 Alpha  occ. eigenvalues --  -10.29368 -10.29282 -10.28787  -8.07813  -6.03252
 Alpha  occ. eigenvalues --   -6.02818  -6.02329  -1.19904  -1.13955  -1.10978
 Alpha  occ. eigenvalues --   -0.97121  -0.92482  -0.89521  -0.88452  -0.85304
 Alpha  occ. eigenvalues --   -0.83615  -0.81195  -0.76992  -0.73438  -0.70957
 Alpha  occ. eigenvalues --   -0.70117  -0.69324  -0.67145  -0.65137  -0.61094
 Alpha  occ. eigenvalues --   -0.58905  -0.57499  -0.57187  -0.55814  -0.55294
 Alpha  occ. eigenvalues --   -0.55272  -0.54242  -0.53105  -0.52586  -0.52234
 Alpha  occ. eigenvalues --   -0.50544  -0.50176  -0.49378  -0.48670  -0.48327
 Alpha  occ. eigenvalues --   -0.47183  -0.46951  -0.45530  -0.44381  -0.44154
 Alpha  occ. eigenvalues --   -0.43135  -0.42444  -0.41585  -0.41199  -0.40762
 Alpha  occ. eigenvalues --   -0.40476  -0.37270  -0.35674  -0.34387  -0.33735
 Alpha  occ. eigenvalues --   -0.32900
 Alpha virt. eigenvalues --    0.02974   0.03282   0.05029   0.07212   0.10717
 Alpha virt. eigenvalues --    0.12472   0.13795   0.14130   0.15275   0.16160
 Alpha virt. eigenvalues --    0.16360   0.17624   0.18415   0.18990   0.19491
 Alpha virt. eigenvalues --    0.20849   0.21909   0.21965   0.22421   0.22709
 Alpha virt. eigenvalues --    0.23092   0.24229   0.24558   0.24578   0.25396
 Alpha virt. eigenvalues --    0.26868   0.28325   0.28927   0.31608   0.32263
 Alpha virt. eigenvalues --    0.32850   0.33637   0.33774   0.35988   0.36473
 Alpha virt. eigenvalues --    0.36687   0.37523   0.37688   0.42048   0.43158
 Alpha virt. eigenvalues --    0.46740   0.47825   0.48379   0.48921   0.49271
 Alpha virt. eigenvalues --    0.50300   0.50347   0.51914   0.51994   0.53213
 Alpha virt. eigenvalues --    0.54536   0.55114   0.56015   0.57028   0.57720
 Alpha virt. eigenvalues --    0.58094   0.58676   0.59705   0.61158   0.62028
 Alpha virt. eigenvalues --    0.62740   0.63107   0.63381   0.64403   0.65808
 Alpha virt. eigenvalues --    0.67280   0.68191   0.69230   0.70094   0.70728
 Alpha virt. eigenvalues --    0.71273   0.72074   0.72280   0.72802   0.72871
 Alpha virt. eigenvalues --    0.73852   0.74320   0.74832   0.75366   0.75988
 Alpha virt. eigenvalues --    0.76012   0.76417   0.77351   0.77396   0.78057
 Alpha virt. eigenvalues --    0.78447   0.79088   0.79321   0.79641   0.80309
 Alpha virt. eigenvalues --    0.80551   0.81150   0.81379   0.82210   0.82702
 Alpha virt. eigenvalues --    0.83114   0.83443   0.84778   0.85292   0.86348
 Alpha virt. eigenvalues --    0.88465   0.88981   0.90988   0.91501   0.93292
 Alpha virt. eigenvalues --    0.94153   0.95341   0.96970   0.99567   1.00881
 Alpha virt. eigenvalues --    1.03210   1.04510   1.05999   1.06998   1.08834
 Alpha virt. eigenvalues --    1.09379   1.11248   1.12297   1.14123   1.15600
 Alpha virt. eigenvalues --    1.16848   1.18446   1.19848   1.20576   1.23583
 Alpha virt. eigenvalues --    1.25439   1.25889   1.26704   1.28533   1.29732
 Alpha virt. eigenvalues --    1.31204   1.31603   1.32091   1.35715   1.35955
 Alpha virt. eigenvalues --    1.36325   1.36620   1.37390   1.37865   1.40302
 Alpha virt. eigenvalues --    1.42228   1.43191   1.45885   1.46868   1.48397
 Alpha virt. eigenvalues --    1.49967   1.53112   1.58673   1.61264   1.62532
 Alpha virt. eigenvalues --    1.62954   1.63675   1.66016   1.70517   1.71433
 Alpha virt. eigenvalues --    1.72176   1.73813   1.75031   1.77829   1.78921
 Alpha virt. eigenvalues --    1.80622   1.81065   1.81968   1.82624   1.83140
 Alpha virt. eigenvalues --    1.83493   1.83889   1.84496   1.84879   1.85434
 Alpha virt. eigenvalues --    1.86526   1.87440   1.87661   1.88529   1.88848
 Alpha virt. eigenvalues --    1.90157   1.90266   1.92264   1.92552   1.94162
 Alpha virt. eigenvalues --    1.94337   1.94756   1.95774   1.96854   1.97669
 Alpha virt. eigenvalues --    1.97732   1.99931   2.00528   2.01389   2.03248
 Alpha virt. eigenvalues --    2.03479   2.04847   2.05201   2.05755   2.06399
 Alpha virt. eigenvalues --    2.07589   2.07708   2.10824   2.13682   2.14231
 Alpha virt. eigenvalues --    2.14547   2.17936   2.19112   2.20186   2.21289
 Alpha virt. eigenvalues --    2.22060   2.24222   2.25782   2.27157   2.28749
 Alpha virt. eigenvalues --    2.32098   2.34476   2.36303   2.37307   2.37898
 Alpha virt. eigenvalues --    2.38585   2.40796   2.42422   2.43366   2.44006
 Alpha virt. eigenvalues --    2.45420   2.48325   2.50849   2.51641   2.53608
 Alpha virt. eigenvalues --    2.54590   2.57549   2.57724   2.61111   2.61896
 Alpha virt. eigenvalues --    2.64426   2.68135   2.68442   2.69077   2.69756
 Alpha virt. eigenvalues --    2.70797   2.72109   2.72324   2.75666   2.76569
 Alpha virt. eigenvalues --    2.78063   2.79765   2.82447   2.83064   2.83900
 Alpha virt. eigenvalues --    2.87658   2.90109   2.93857   2.95648   2.96174
 Alpha virt. eigenvalues --    2.96956   2.97682   2.98215   2.98486   3.02192
 Alpha virt. eigenvalues --    3.05853   3.06756   3.08561   3.10370   3.12334
 Alpha virt. eigenvalues --    3.13060   3.15722   3.19049   3.20822   3.21451
 Alpha virt. eigenvalues --    3.22137   3.25564   3.26587   3.29604   3.33469
 Alpha virt. eigenvalues --    3.58277   3.67592   3.70486   3.70659   3.83559
          Condensed to atoms (all electrons):
               1          2          3          4          5          6
     1  O    7.692949   0.699414  -0.073034  -0.095585  -0.000194  -0.000163
     2  C    0.699414   4.496854   0.377025   0.233122  -0.013556   0.003245
     3  O   -0.073034   0.377025   7.722085  -0.148376   0.010247   0.000113
     4  C   -0.095585   0.233122  -0.148376   5.597540   0.267664  -0.052327
     5  C   -0.000194  -0.013556   0.010247   0.267664   4.728976   0.404272
     6  C   -0.000163   0.003245   0.000113  -0.052327   0.404272   4.660111
     7  C    0.000004   0.000214  -0.000001  -0.006526  -0.048630   0.381648
     8  C   -0.000000   0.000001  -0.000000  -0.000105   0.007612  -0.040428
     9  C    0.000000  -0.000000   0.000000  -0.000001  -0.000353   0.007500
    10  C   -0.000093  -0.010682   0.010395   0.179432  -0.033965  -0.003600
    11  S   -0.000025  -0.000398   0.001389  -0.122912   0.009991  -0.000673
    12  C    0.000000  -0.000041  -0.000002   0.006259  -0.000060  -0.000089
    13  C    0.000000   0.000019   0.000010   0.000038   0.000001  -0.000001
    14  C    0.000000  -0.000000  -0.000000  -0.000008   0.000000   0.000000
    15  C    0.000000  -0.000000   0.000000   0.000002  -0.000000  -0.000000
    16  C   -0.000000   0.000000   0.000000  -0.000020   0.000002  -0.000001
    17  C    0.000000  -0.000008  -0.000001   0.000204  -0.000026   0.000023
    18  O    0.000025   0.003046   0.000029  -0.084938   0.002422   0.000492
    19  H    0.004648  -0.006407   0.315996   0.014177  -0.000617   0.000020
    20  H    0.008822  -0.000719   0.004817   0.328458  -0.021682  -0.001856
    21  H    0.001428  -0.000093  -0.000794  -0.027341   0.371635  -0.018722
    22  H    0.000032  -0.005062   0.003058  -0.006838   0.373247  -0.016249
    23  H   -0.000001  -0.000211  -0.000001   0.008585  -0.020713   0.377591
    24  H   -0.000011  -0.000309  -0.000006  -0.008094  -0.020144   0.378920
    25  H    0.000000  -0.000041  -0.000002  -0.002568  -0.002171  -0.026287
    26  H   -0.000003  -0.000002  -0.000001   0.003102  -0.009918  -0.016766
    27  H    0.000000  -0.000000   0.000000  -0.000059   0.000309  -0.005945
    28  H    0.000000   0.000000  -0.000000   0.000021   0.000066  -0.006867
    29  H    0.000000   0.000000  -0.000000   0.000000   0.000009  -0.000356
    30  H   -0.000000   0.000000  -0.000000   0.000000  -0.000003   0.000256
    31  H    0.000000  -0.000000   0.000000  -0.000002   0.000003   0.000255
    32  H    0.000000  -0.000002   0.000009  -0.000007  -0.000004   0.000000
    33  H   -0.000000   0.000000  -0.000000  -0.000000   0.000000  -0.000000
    34  H   -0.000000  -0.000000   0.000000   0.000000  -0.000000  -0.000000
    35  H    0.000000  -0.000000   0.000000  -0.000000  -0.000000   0.000000
    36  H    0.000000   0.000001   0.000000  -0.000084   0.000016  -0.000021
               7          8          9         10         11         12
     1  O    0.000004  -0.000000   0.000000  -0.000093  -0.000025   0.000000
     2  C    0.000214   0.000001  -0.000000  -0.010682  -0.000398  -0.000041
     3  O   -0.000001  -0.000000   0.000000   0.010395   0.001389  -0.000002
     4  C   -0.006526  -0.000105  -0.000001   0.179432  -0.122912   0.006259
     5  C   -0.048630   0.007612  -0.000353  -0.033965   0.009991  -0.000060
     6  C    0.381648  -0.040428   0.007500  -0.003600  -0.000673  -0.000089
     7  C    4.761042   0.393726  -0.055000   0.001645  -0.001924  -0.000466
     8  C    0.393726   4.645191   0.421398  -0.000187   0.000272  -0.000001
     9  C   -0.055000   0.421398   4.548427   0.000014   0.000001   0.000010
    10  C    0.001645  -0.000187   0.000014   4.897505   0.239171  -0.027324
    11  S   -0.001924   0.000272   0.000001   0.239171  15.852439   0.217145
    12  C   -0.000466  -0.000001   0.000010  -0.027324   0.217145   5.385343
    13  C   -0.000007   0.000000   0.000000  -0.003385  -0.060749   0.305626
    14  C    0.000000  -0.000000  -0.000000  -0.000209   0.004451   0.085657
    15  C   -0.000000  -0.000000   0.000000   0.000054   0.000359  -0.157251
    16  C    0.000041  -0.000000  -0.000017  -0.000237   0.005218   0.086185
    17  C   -0.000432   0.000024  -0.000361  -0.004302  -0.063793   0.293995
    18  O   -0.001260   0.000004  -0.000000   0.666408  -0.081866   0.009331
    19  H   -0.000001   0.000000  -0.000000  -0.000651   0.000167  -0.000004
    20  H   -0.002064  -0.000089   0.000001  -0.004816   0.005255  -0.000153
    21  H    0.007767  -0.000331   0.000010   0.008032  -0.000323   0.000007
    22  H   -0.010300   0.000322  -0.000013  -0.018879   0.005805   0.000194
    23  H   -0.020149  -0.007012   0.000298  -0.000125  -0.000031  -0.000002
    24  H   -0.025223  -0.005117   0.000046  -0.001986  -0.000028   0.000003
    25  H    0.384295  -0.025669  -0.004177   0.000136   0.007776  -0.000680
    26  H    0.379568  -0.024108  -0.004234   0.007832  -0.005963  -0.000340
    27  H   -0.021849   0.380608  -0.024429  -0.000000  -0.000011  -0.000000
    28  H   -0.024135   0.383604  -0.024047   0.000001  -0.000012  -0.000000
    29  H    0.007229  -0.015556   0.387778  -0.000000  -0.000000  -0.000000
    30  H   -0.007529  -0.020658   0.397126  -0.000017  -0.000008   0.000011
    31  H   -0.006619  -0.021855   0.396596   0.000003  -0.000042   0.000004
    32  H    0.000000  -0.000000   0.000000   0.000135   0.000224  -0.065320
    33  H   -0.000000   0.000000   0.000000  -0.000003  -0.000161   0.014743
    34  H    0.000000   0.000000   0.000000   0.000000   0.000013  -0.001582
    35  H   -0.000001  -0.000001   0.000002  -0.000004  -0.000157   0.014898
    36  H    0.000807  -0.000260   0.001336  -0.000028  -0.003090  -0.066032
              13         14         15         16         17         18
     1  O    0.000000   0.000000   0.000000  -0.000000   0.000000   0.000025
     2  C    0.000019  -0.000000  -0.000000   0.000000  -0.000008   0.003046
     3  O    0.000010  -0.000000   0.000000   0.000000  -0.000001   0.000029
     4  C    0.000038  -0.000008   0.000002  -0.000020   0.000204  -0.084938
     5  C    0.000001   0.000000  -0.000000   0.000002  -0.000026   0.002422
     6  C   -0.000001   0.000000  -0.000000  -0.000001   0.000023   0.000492
     7  C   -0.000007   0.000000  -0.000000   0.000041  -0.000432  -0.001260
     8  C    0.000000  -0.000000  -0.000000  -0.000000   0.000024   0.000004
     9  C    0.000000  -0.000000   0.000000  -0.000017  -0.000361  -0.000000
    10  C   -0.003385  -0.000209   0.000054  -0.000237  -0.004302   0.666408
    11  S   -0.060749   0.004451   0.000359   0.005218  -0.063793  -0.081866
    12  C    0.305626   0.085657  -0.157251   0.086185   0.293995   0.009331
    13  C    4.968748   0.330266   0.079441  -0.123977   0.062169   0.003776
    14  C    0.330266   5.000483   0.306566   0.069695  -0.124162  -0.000585
    15  C    0.079441   0.306566   5.049757   0.303752   0.081049   0.000126
    16  C   -0.123977   0.069695   0.303752   5.005047   0.325076  -0.000674
    17  C    0.062169  -0.124162   0.081049   0.325076   4.985571   0.003778
    18  O    0.003776  -0.000585   0.000126  -0.000674   0.003778   7.682262
    19  H   -0.000001   0.000000  -0.000000  -0.000000   0.000000  -0.000022
    20  H   -0.000010   0.000000  -0.000000   0.000000  -0.000014   0.007272
    21  H    0.000000  -0.000000   0.000000  -0.000000  -0.000000  -0.000100
    22  H    0.000000  -0.000000   0.000000  -0.000001   0.000017   0.000014
    23  H   -0.000000   0.000000  -0.000000   0.000000  -0.000000  -0.000003
    24  H   -0.000000  -0.000000   0.000000  -0.000000  -0.000001  -0.000049
    25  H    0.000004  -0.000000   0.000000   0.000029  -0.000123   0.000024
    26  H   -0.000011   0.000001   0.000001  -0.000014   0.000956   0.002074
    27  H   -0.000000   0.000000   0.000000  -0.000000  -0.000004   0.000001
    28  H   -0.000000   0.000000   0.000000   0.000000  -0.000003  -0.000000
    29  H   -0.000000   0.000000  -0.000000   0.000001   0.000010   0.000000
    30  H    0.000000  -0.000000   0.000000   0.000001  -0.000250  -0.000003
    31  H    0.000000  -0.000000   0.000000  -0.000006  -0.000185   0.000000
    32  H    0.441741  -0.054132   0.012723  -0.001761   0.012760   0.000156
    33  H   -0.065675   0.451638  -0.066705   0.013038  -0.002084  -0.000003
    34  H    0.012977  -0.063272   0.446093  -0.063397   0.013060   0.000000
    35  H   -0.002055   0.012981  -0.067520   0.452095  -0.065240  -0.000001
    36  H    0.012545  -0.001735   0.013148  -0.055466   0.443815  -0.000007
              19         20         21         22         23         24
     1  O    0.004648   0.008822   0.001428   0.000032  -0.000001  -0.000011
     2  C   -0.006407  -0.000719  -0.000093  -0.005062  -0.000211  -0.000309
     3  O    0.315996   0.004817  -0.000794   0.003058  -0.000001  -0.000006
     4  C    0.014177   0.328458  -0.027341  -0.006838   0.008585  -0.008094
     5  C   -0.000617  -0.021682   0.371635   0.373247  -0.020713  -0.020144
     6  C    0.000020  -0.001856  -0.018722  -0.016249   0.377591   0.378920
     7  C   -0.000001  -0.002064   0.007767  -0.010300  -0.020149  -0.025223
     8  C    0.000000  -0.000089  -0.000331   0.000322  -0.007012  -0.005117
     9  C   -0.000000   0.000001   0.000010  -0.000013   0.000298   0.000046
    10  C   -0.000651  -0.004816   0.008032  -0.018879  -0.000125  -0.001986
    11  S    0.000167   0.005255  -0.000323   0.005805  -0.000031  -0.000028
    12  C   -0.000004  -0.000153   0.000007   0.000194  -0.000002   0.000003
    13  C   -0.000001  -0.000010   0.000000   0.000000  -0.000000  -0.000000
    14  C    0.000000   0.000000  -0.000000  -0.000000   0.000000  -0.000000
    15  C   -0.000000  -0.000000   0.000000   0.000000  -0.000000   0.000000
    16  C   -0.000000   0.000000  -0.000000  -0.000001   0.000000  -0.000000
    17  C    0.000000  -0.000014  -0.000000   0.000017  -0.000000  -0.000001
    18  O   -0.000022   0.007272  -0.000100   0.000014  -0.000003  -0.000049
    19  H    0.469663  -0.000395  -0.000285  -0.000064  -0.000001   0.000001
    20  H   -0.000395   0.598674  -0.003686   0.005531   0.000132   0.005919
    21  H   -0.000285  -0.003686   0.658830  -0.020834  -0.008629  -0.005545
    22  H   -0.000064   0.005531  -0.020834   0.633166  -0.005765   0.007284
    23  H   -0.000001   0.000132  -0.008629  -0.005765   0.669746  -0.026231
    24  H    0.000001   0.005919  -0.005545   0.007284  -0.026231   0.671979
    25  H   -0.000000   0.000065   0.000159   0.004922  -0.008886   0.008125
    26  H    0.000001  -0.000080  -0.000202  -0.000588   0.007824  -0.010120
    27  H   -0.000000   0.000013   0.000009   0.000008  -0.001678   0.006429
    28  H    0.000000   0.000003  -0.000017  -0.000021   0.007851  -0.001467
    29  H    0.000000  -0.000000  -0.000000   0.000000   0.000002   0.000006
    30  H    0.000000   0.000001  -0.000000   0.000002   0.000028  -0.000039
    31  H   -0.000000   0.000000   0.000000  -0.000004  -0.000043   0.000021
    32  H    0.000001   0.000000  -0.000000   0.000003   0.000000   0.000000
    33  H    0.000000   0.000000   0.000000  -0.000000  -0.000000  -0.000000
    34  H   -0.000000  -0.000000  -0.000000  -0.000000   0.000000   0.000000
    35  H    0.000000   0.000000  -0.000000   0.000000   0.000000  -0.000000
    36  H   -0.000000  -0.000004   0.000001  -0.000005   0.000003   0.000003
              25         26         27         28         29         30
     1  O    0.000000  -0.000003   0.000000   0.000000   0.000000  -0.000000
     2  C   -0.000041  -0.000002  -0.000000   0.000000   0.000000   0.000000
     3  O   -0.000002  -0.000001   0.000000  -0.000000  -0.000000  -0.000000
     4  C   -0.002568   0.003102  -0.000059   0.000021   0.000000   0.000000
     5  C   -0.002171  -0.009918   0.000309   0.000066   0.000009  -0.000003
     6  C   -0.026287  -0.016766  -0.005945  -0.006867  -0.000356   0.000256
     7  C    0.384295   0.379568  -0.021849  -0.024135   0.007229  -0.007529
     8  C   -0.025669  -0.024108   0.380608   0.383604  -0.015556  -0.020658
     9  C   -0.004177  -0.004234  -0.024429  -0.024047   0.387778   0.397126
    10  C    0.000136   0.007832  -0.000000   0.000001  -0.000000  -0.000017
    11  S    0.007776  -0.005963  -0.000011  -0.000012  -0.000000  -0.000008
    12  C   -0.000680  -0.000340  -0.000000  -0.000000  -0.000000   0.000011
    13  C    0.000004  -0.000011  -0.000000  -0.000000  -0.000000   0.000000
    14  C   -0.000000   0.000001   0.000000   0.000000   0.000000  -0.000000
    15  C    0.000000   0.000001   0.000000   0.000000  -0.000000   0.000000
    16  C    0.000029  -0.000014  -0.000000   0.000000   0.000001   0.000001
    17  C   -0.000123   0.000956  -0.000004  -0.000003   0.000010  -0.000250
    18  O    0.000024   0.002074   0.000001  -0.000000   0.000000  -0.000003
    19  H   -0.000000   0.000001  -0.000000   0.000000   0.000000   0.000000
    20  H    0.000065  -0.000080   0.000013   0.000003  -0.000000   0.000001
    21  H    0.000159  -0.000202   0.000009  -0.000017  -0.000000  -0.000000
    22  H    0.004922  -0.000588   0.000008  -0.000021   0.000000   0.000002
    23  H   -0.008886   0.007824  -0.001678   0.007851   0.000002   0.000028
    24  H    0.008125  -0.010120   0.006429  -0.001467   0.000006  -0.000039
    25  H    0.669747  -0.033987   0.008321  -0.010441  -0.000041  -0.001815
    26  H   -0.033987   0.661893  -0.010309   0.008375   0.000017   0.006199
    27  H    0.008321  -0.010309   0.679481  -0.029478  -0.005890  -0.008558
    28  H   -0.010441   0.008375  -0.029478   0.679433  -0.005770   0.007525
    29  H   -0.000041   0.000017  -0.005890  -0.005770   0.640069  -0.021190
    30  H   -0.001815   0.006199  -0.008558   0.007525  -0.021190   0.640503
    31  H    0.006020  -0.001977   0.007648  -0.008418  -0.021848  -0.025934
    32  H   -0.000000   0.000002   0.000000   0.000000  -0.000000   0.000000
    33  H    0.000000  -0.000000  -0.000000  -0.000000   0.000000  -0.000000
    34  H   -0.000000  -0.000000   0.000000   0.000000  -0.000000  -0.000000
    35  H   -0.000002   0.000005  -0.000000   0.000000  -0.000000   0.000031
    36  H    0.001581   0.001810   0.000021   0.000016  -0.000059   0.001157
              31         32         33         34         35         36
     1  O    0.000000   0.000000  -0.000000  -0.000000   0.000000   0.000000
     2  C   -0.000000  -0.000002   0.000000  -0.000000  -0.000000   0.000001
     3  O    0.000000   0.000009  -0.000000   0.000000   0.000000   0.000000
     4  C   -0.000002  -0.000007  -0.000000   0.000000  -0.000000  -0.000084
     5  C    0.000003  -0.000004   0.000000  -0.000000  -0.000000   0.000016
     6  C    0.000255   0.000000  -0.000000  -0.000000   0.000000  -0.000021
     7  C   -0.006619   0.000000  -0.000000   0.000000  -0.000001   0.000807
     8  C   -0.021855  -0.000000   0.000000   0.000000  -0.000001  -0.000260
     9  C    0.396596   0.000000   0.000000   0.000000   0.000002   0.001336
    10  C    0.000003   0.000135  -0.000003   0.000000  -0.000004  -0.000028
    11  S   -0.000042   0.000224  -0.000161   0.000013  -0.000157  -0.003090
    12  C    0.000004  -0.065320   0.014743  -0.001582   0.014898  -0.066032
    13  C    0.000000   0.441741  -0.065675   0.012977  -0.002055   0.012545
    14  C   -0.000000  -0.054132   0.451638  -0.063272   0.012981  -0.001735
    15  C    0.000000   0.012723  -0.066705   0.446093  -0.067520   0.013148
    16  C   -0.000006  -0.001761   0.013038  -0.063397   0.452095  -0.055466
    17  C   -0.000185   0.012760  -0.002084   0.013060  -0.065240   0.443815
    18  O    0.000000   0.000156  -0.000003   0.000000  -0.000001  -0.000007
    19  H   -0.000000   0.000001   0.000000  -0.000000   0.000000  -0.000000
    20  H    0.000000   0.000000   0.000000  -0.000000   0.000000  -0.000004
    21  H    0.000000  -0.000000   0.000000  -0.000000  -0.000000   0.000001
    22  H   -0.000004   0.000003  -0.000000  -0.000000   0.000000  -0.000005
    23  H   -0.000043   0.000000  -0.000000   0.000000   0.000000   0.000003
    24  H    0.000021   0.000000  -0.000000   0.000000  -0.000000   0.000003
    25  H    0.006020  -0.000000   0.000000  -0.000000  -0.000002   0.001581
    26  H   -0.001977   0.000002  -0.000000  -0.000000   0.000005   0.001810
    27  H    0.007648   0.000000  -0.000000   0.000000  -0.000000   0.000021
    28  H   -0.008418   0.000000  -0.000000   0.000000   0.000000   0.000016
    29  H   -0.021848  -0.000000   0.000000  -0.000000  -0.000000  -0.000059
    30  H   -0.025934   0.000000  -0.000000  -0.000000   0.000031   0.001157
    31  H    0.644574   0.000000  -0.000000  -0.000000   0.000002   0.000894
    32  H    0.000000   0.647413  -0.011771  -0.000217   0.000024  -0.000177
    33  H   -0.000000  -0.011771   0.655028  -0.011513  -0.000206   0.000020
    34  H   -0.000000  -0.000217  -0.011513   0.656380  -0.011511  -0.000215
    35  H    0.000002   0.000024  -0.000206  -0.011511   0.657227  -0.012567
    36  H    0.000894  -0.000177   0.000020  -0.000215  -0.012567   0.651062
 Mulliken charges:
               1
     1  O   -0.238214
     2  C    0.224587
     3  O   -0.222955
     4  C   -0.082813
     5  C   -0.004435
     6  C   -0.024092
     7  C   -0.085868
     8  C   -0.071384
     9  C   -0.047911
    10  C    0.099731
    11  S   -0.007510
    12  C   -0.100064
    13  C    0.038511
    14  C   -0.017634
    15  C   -0.001595
    16  C   -0.014607
    17  C    0.038481
    18  O   -0.211728
    19  H    0.203773
    20  H    0.070605
    21  H    0.039026
    22  H    0.051016
    23  H    0.027423
    24  H    0.025637
    25  H    0.025686
    26  H    0.038967
    27  H    0.025363
    28  H    0.023784
    29  H    0.035590
    30  H    0.033165
    31  H    0.030913
    32  H    0.018202
    33  H    0.023652
    34  H    0.023183
    35  H    0.021999
    36  H    0.011513
 Sum of Mulliken charges =  -0.00000
 Mulliken charges with hydrogens summed into heavy atoms:
               1
     1  O   -0.238214
     2  C    0.224587
     3  O   -0.019181
     4  C   -0.012208
     5  C    0.085608
     6  C    0.028968
     7  C   -0.021215
     8  C   -0.022236
     9  C    0.051757
    10  C    0.099731
    11  S   -0.007510
    12  C   -0.100064
    13  C    0.056713
    14  C    0.006019
    15  C    0.021587
    16  C    0.007391
    17  C    0.049994
    18  O   -0.211728
 Electronic spatial extent (au):  <R**2>=           6031.9247
 Charge=             -0.0000 electrons
 Dipole moment (field-independent basis, Debye):
    X=              0.9870    Y=              0.9149    Z=             -2.4224  Tot=              2.7712
 Quadrupole moment (field-independent basis, Debye-Ang):
   XX=           -105.5431   YY=           -103.9949   ZZ=           -122.4974
   XY=             -3.5313   XZ=              8.8313   YZ=              8.1370
 Traceless Quadrupole moment (field-independent basis, Debye-Ang):
   XX=              5.1354   YY=              6.6835   ZZ=            -11.8189
   XY=             -3.5313   XZ=              8.8313   YZ=              8.1370
 Octapole moment (field-independent basis, Debye-Ang**2):
  XXX=             44.8722  YYY=            -60.2571  ZZZ=             -4.0798  XYY=             -4.7361
  XXY=             -4.5955  XXZ=            -11.8790  XZZ=            -12.9608  YZZ=              4.2958
  YYZ=            -22.2666  XYZ=            -20.6092
 Hexadecapole moment (field-independent basis, Debye-Ang**3):
 XXXX=          -4255.1649 YYYY=          -2877.4486 ZZZZ=           -481.7850 XXXY=            -53.4436
 XXXZ=            205.5824 YYYX=            107.5001 YYYZ=             87.5427 ZZZX=              3.9245
 ZZZY=             11.8479 XXYY=          -1193.3639 XXZZ=           -870.0198 YYZZ=           -604.9514
 XXYZ=             92.3896 YYXZ=             83.2860 ZZXY=             10.5988
 N-N= 1.435170614272D+03 E-N=-5.605079591904D+03  KE= 1.158236317878D+03
   1 Symmetry operations used in ECPInt.
 ECPInt:  NShTT=   13530 NPrTT=   49126 LenC2=   12261 LenP2D=   30978.
 LDataN:  DoStor=T MaxTD1= 5 Len=  102
 Calling FoFJK, ICntrl=      2127 FMM=F ISym2X=0 I1Cent= 0 IOpClX= 0 NMat=1 NMatS=1 NMatT=0.
 ***** Axes restored to original set *****
 -------------------------------------------------------------------
 Center     Atomic                   Forces (Hartrees/Bohr)
 Number     Number              X              Y              Z
 -------------------------------------------------------------------
      1        8          -0.013901231    0.017547988    0.051854382
      2        6           0.001345148    0.003012748   -0.034880654
      3        8           0.019636848   -0.022882803    0.006841691
      4        6          -0.012294210   -0.003910533    0.007321140
      5        6           0.005055152   -0.004080326    0.000654724
      6        6           0.005950573    0.018393525    0.006023773
      7        6          -0.004673383   -0.016606180   -0.004424431
      8        6           0.004771275    0.014559347    0.003243981
      9        6          -0.006868863   -0.004143233   -0.008917920
     10        6           0.045448591    0.008420265   -0.009604802
     11       16          -0.003245348   -0.011745317   -0.017706752
     12        6           0.002272971   -0.000874866   -0.003723661
     13        6           0.006636593   -0.000901883    0.005181965
     14        6          -0.001794872   -0.009522217    0.003633428
     15        6          -0.003776804   -0.002030981   -0.002065526
     16        6          -0.005714375    0.005588412   -0.006428618
     17        6           0.004472963    0.006775221    0.000327667
     18        8          -0.054477556   -0.004400684    0.019205804
     19        1           0.001169497   -0.002271701   -0.010775618
     20        1           0.006108337    0.002093003   -0.003773001
     21        1          -0.002054688   -0.000203946   -0.008454829
     22        1          -0.001332695    0.007026197    0.005176293
     23        1          -0.006930283   -0.003062554    0.002216339
     24        1           0.004939949   -0.004072768   -0.005964221
     25        1          -0.003796043    0.005400482    0.004204473
     26        1           0.007538302    0.005532584   -0.002836265
     27        1           0.003567869   -0.005080217   -0.005593467
     28        1          -0.007268975   -0.003765056    0.002019086
     29        1           0.002106335   -0.005212593    0.003684158
     30        1           0.005925443    0.003555394   -0.002603515
     31        1          -0.003718041    0.004719967    0.004362018
     32        1          -0.005474278    0.002118853   -0.005679041
     33        1           0.001653467    0.007893399   -0.002248858
     34        1           0.007084461    0.004070177    0.003582339
     35        1           0.004691639   -0.004268334    0.005450165
     36        1          -0.003053765   -0.007671372    0.000697756
 -------------------------------------------------------------------
 Cartesian Forces:  Max     0.054477556 RMS     0.011575248

 GradGradGradGradGradGradGradGradGradGradGradGradGradGradGradGradGradGrad
 Berny optimization.
 FormGI is forming the generalized inverse of G from B-inverse, IUseBI=4.
 Internal  Forces:  Max     0.057750007 RMS     0.007665141
 Search for a local minimum.
 Step number   1 out of a maximum of  195
 All quantities printed in internal units (Hartrees-Bohrs-Radians)
 Mixed Optimization -- RFO/linear search
 Second derivative matrix not updated -- first step.
 ITU=  0
     Eigenvalues ---    0.00230   0.00230   0.00230   0.00230   0.00230
     Eigenvalues ---    0.00230   0.00231   0.00262   0.00306   0.00717
     Eigenvalues ---    0.00831   0.01916   0.02125   0.02152   0.02165
     Eigenvalues ---    0.02167   0.02168   0.02173   0.02175   0.02179
     Eigenvalues ---    0.02180   0.02989   0.03119   0.03198   0.03393
     Eigenvalues ---    0.03447   0.04638   0.04665   0.04737   0.04765
     Eigenvalues ---    0.05204   0.05429   0.05479   0.06556   0.08324
     Eigenvalues ---    0.08360   0.08795   0.08937   0.12205   0.12235
     Eigenvalues ---    0.12553   0.12674   0.16000   0.16000   0.16000
     Eigenvalues ---    0.16000   0.16000   0.16000   0.16000   0.16000
     Eigenvalues ---    0.16000   0.18906   0.19772   0.21884   0.21899
     Eigenvalues ---    0.21920   0.21936   0.22000   0.22000   0.22876
     Eigenvalues ---    0.23488   0.24998   0.24998   0.25000   0.25000
     Eigenvalues ---    0.25000   0.25000   0.26646   0.27826   0.27913
     Eigenvalues ---    0.28377   0.28392   0.28688   0.28984   0.29067
     Eigenvalues ---    0.34537   0.34557   0.34689   0.34699   0.34710
     Eigenvalues ---    0.34714   0.34718   0.34745   0.34753   0.34769
     Eigenvalues ---    0.34783   0.34864   0.35916   0.35945   0.35991
     Eigenvalues ---    0.35992   0.35994   0.42273   0.42410   0.46437
     Eigenvalues ---    0.46507   0.46680   0.46889   0.51513   0.55503
     Eigenvalues ---    0.90468   0.91033
 RFO step:  Lambda=-2.25929999D-02 EMin= 2.30000000D-03
 Linear search not attempted -- first point.
 Iteration  1 RMS(Cart)=  0.08928867 RMS(Int)=  0.00151060
 Iteration  2 RMS(Cart)=  0.00277921 RMS(Int)=  0.00021776
 Iteration  3 RMS(Cart)=  0.00000578 RMS(Int)=  0.00021775
 Iteration  4 RMS(Cart)=  0.00000000 RMS(Int)=  0.00021775
 Variable       Old X    -DE/DX   Delta X   Delta X   Delta X     New X
                                 (Linear)    (Quad)   (Total)
    R1        2.32461  -0.05620   0.00000  -0.06024  -0.06024   2.26436
    R2        2.58369  -0.03241   0.00000  -0.06027  -0.06027   2.52342
    R3        2.91321  -0.01586   0.00000  -0.05178  -0.05178   2.86143
    R4        1.81388   0.00677   0.00000   0.01172   0.01172   1.82560
    R5        2.95198  -0.01303   0.00000  -0.04508  -0.04508   2.90690
    R6        2.92328  -0.01200   0.00000  -0.03976  -0.03976   2.88352
    R7        2.06433   0.00402   0.00000   0.01091   0.01091   2.07524
    R8        2.92520  -0.00958   0.00000  -0.03183  -0.03183   2.89337
    R9        2.06400   0.00665   0.00000   0.01807   0.01807   2.08207
   R10        2.06052   0.00797   0.00000   0.02151   0.02151   2.08203
   R11        2.91289  -0.00700   0.00000  -0.02283  -0.02283   2.89006
   R12        2.06182   0.00770   0.00000   0.02083   0.02083   2.08265
   R13        2.06166   0.00868   0.00000   0.02347   0.02347   2.08513
   R14        2.90658  -0.00614   0.00000  -0.01984  -0.01984   2.88674
   R15        2.06148   0.00780   0.00000   0.02109   0.02109   2.08257
   R16        2.05896   0.00973   0.00000   0.02620   0.02620   2.08516
   R17        2.90037  -0.00445   0.00000  -0.01423  -0.01423   2.88614
   R18        2.06142   0.00831   0.00000   0.02248   0.02248   2.08390
   R19        2.06135   0.00837   0.00000   0.02263   0.02263   2.08399
   R20        2.06028   0.00671   0.00000   0.01810   0.01810   2.07839
   R21        2.06090   0.00737   0.00000   0.01992   0.01992   2.08082
   R22        2.06078   0.00741   0.00000   0.02002   0.02002   2.08080
   R23        3.48636  -0.02136   0.00000  -0.08498  -0.08498   3.40138
   R24        2.32718  -0.05775   0.00000  -0.06228  -0.06228   2.26490
   R25        3.33562   0.00557   0.00000   0.01779   0.01779   3.35342
   R26        2.63670   0.00125   0.00000   0.00258   0.00258   2.63928
   R27        2.63751   0.00157   0.00000   0.00326   0.00326   2.64077
   R28        2.63161   0.00174   0.00000   0.00354   0.00354   2.63515
   R29        2.04167   0.00791   0.00000   0.02070   0.02070   2.06237
   R30        2.63449   0.00036   0.00000   0.00072   0.00072   2.63521
   R31        2.04092   0.00837   0.00000   0.02188   0.02188   2.06279
   R32        2.63440   0.00058   0.00000   0.00117   0.00118   2.63557
   R33        2.04093   0.00892   0.00000   0.02332   0.02332   2.06426
   R34        2.63123   0.00153   0.00000   0.00312   0.00312   2.63435
   R35        2.04095   0.00836   0.00000   0.02185   0.02185   2.06280
   R36        2.04213   0.00807   0.00000   0.02113   0.02113   2.06325
    A1        2.17336  -0.00468   0.00000  -0.01717  -0.01749   2.15587
    A2        2.14660   0.00764   0.00000   0.02804   0.02769   2.17428
    A3        1.96323  -0.00296   0.00000  -0.01088  -0.01122   1.95202
    A4        1.96874  -0.01590   0.00000  -0.08706  -0.08706   1.88168
    A5        1.95350  -0.00069   0.00000  -0.01348  -0.01440   1.93909
    A6        1.96699  -0.00235   0.00000  -0.03030  -0.03099   1.93600
    A7        1.81779   0.00075   0.00000   0.01462   0.01462   1.83241
    A8        2.02789   0.00013   0.00000  -0.01063  -0.01157   2.01632
    A9        1.84100   0.00377   0.00000   0.05345   0.05351   1.89451
   A10        1.83428  -0.00100   0.00000  -0.00182  -0.00169   1.83258
   A11        2.02542  -0.00887   0.00000  -0.04293  -0.04312   1.98230
   A12        1.89928  -0.00077   0.00000  -0.01356  -0.01293   1.88635
   A13        1.94760   0.00088   0.00000  -0.01271  -0.01285   1.93475
   A14        1.84643   0.00582   0.00000   0.03981   0.03933   1.88576
   A15        1.91601   0.00375   0.00000   0.01416   0.01310   1.92910
   A16        1.81414   0.00035   0.00000   0.02522   0.02456   1.83870
   A17        2.01795  -0.00003   0.00000  -0.00188  -0.00193   2.01602
   A18        1.88195  -0.00089   0.00000  -0.00360  -0.00361   1.87834
   A19        1.91093  -0.00037   0.00000  -0.00837  -0.00843   1.90249
   A20        1.88992   0.00135   0.00000   0.01410   0.01411   1.90404
   A21        1.91235  -0.00056   0.00000  -0.00722  -0.00728   1.90507
   A22        1.84231   0.00059   0.00000   0.00843   0.00844   1.85074
   A23        1.97510  -0.00069   0.00000  -0.00206  -0.00206   1.97304
   A24        1.90954  -0.00012   0.00000  -0.00154  -0.00153   1.90800
   A25        1.91665   0.00021   0.00000   0.00017   0.00017   1.91682
   A26        1.90535   0.00077   0.00000   0.00585   0.00584   1.91119
   A27        1.89280   0.00031   0.00000   0.00205   0.00205   1.89486
   A28        1.86086  -0.00046   0.00000  -0.00460  -0.00460   1.85626
   A29        1.96793  -0.00062   0.00000  -0.00265  -0.00265   1.96529
   A30        1.91345  -0.00024   0.00000  -0.00350  -0.00349   1.90996
   A31        1.91463  -0.00050   0.00000  -0.00563  -0.00562   1.90901
   A32        1.90448   0.00065   0.00000   0.00549   0.00548   1.90996
   A33        1.90434   0.00086   0.00000   0.00658   0.00657   1.91091
   A34        1.85557  -0.00011   0.00000  -0.00006  -0.00010   1.85547
   A35        1.93587   0.00096   0.00000   0.00640   0.00640   1.94227
   A36        1.94223  -0.00066   0.00000  -0.00425  -0.00426   1.93797
   A37        1.94209  -0.00059   0.00000  -0.00374  -0.00375   1.93833
   A38        1.87931  -0.00001   0.00000   0.00088   0.00089   1.88020
   A39        1.87930   0.00001   0.00000   0.00131   0.00131   1.88061
   A40        1.88230   0.00030   0.00000  -0.00046  -0.00048   1.88182
   A41        2.03839  -0.00632   0.00000  -0.02293  -0.02340   2.01499
   A42        2.09829   0.00848   0.00000   0.03137   0.03088   2.12918
   A43        2.14638  -0.00215   0.00000  -0.00763  -0.00809   2.13829
   A44        1.77802  -0.01328   0.00000  -0.04871  -0.04871   1.72932
   A45        2.08948   0.00182   0.00000   0.00670   0.00670   2.09618
   A46        2.08588   0.00040   0.00000   0.00150   0.00150   2.08737
   A47        2.10775  -0.00223   0.00000  -0.00826  -0.00827   2.09948
   A48        2.08654   0.00078   0.00000   0.00309   0.00309   2.08963
   A49        2.10474  -0.00244   0.00000  -0.01274  -0.01274   2.09200
   A50        2.09190   0.00165   0.00000   0.00966   0.00966   2.10155
   A51        2.08913   0.00153   0.00000   0.00611   0.00611   2.09524
[...]
   D71        3.13971   0.00008  -0.00005   0.00339   0.00334  -3.14013
   D72        0.00035  -0.00001  -0.00007   0.00010   0.00004   0.00039
   D73        3.13946  -0.00003  -0.00002  -0.00094  -0.00095   3.13851
   D74       -3.13905   0.00008  -0.00004   0.00359   0.00355  -3.13550
   D75        0.00006   0.00006   0.00001   0.00255   0.00256   0.00262
   D76       -0.00200   0.00003   0.00001   0.00121   0.00122  -0.00078
   D77        3.13936   0.00001   0.00004   0.00027   0.00031   3.13967
   D78       -3.14111   0.00005  -0.00004   0.00225   0.00222  -3.13889
   D79        0.00026   0.00003  -0.00001   0.00132   0.00131   0.00156
   D80        0.00061  -0.00005   0.00001  -0.00228  -0.00227  -0.00166
   D81       -3.14126  -0.00004   0.00002  -0.00167  -0.00165   3.14028
   D82       -3.14075  -0.00003  -0.00001  -0.00135  -0.00136   3.14107
   D83        0.00057  -0.00002  -0.00001  -0.00073  -0.00074  -0.00017
   D84        0.00242   0.00005   0.00002   0.00204   0.00206   0.00448
   D85       -3.14138  -0.00005  -0.00001  -0.00211  -0.00212   3.13968
   D86       -3.13890   0.00004   0.00001   0.00142   0.00144  -3.13747
   D87        0.00048  -0.00007  -0.00002  -0.00272  -0.00274  -0.00226
         Item               Value     Threshold  Converged?
 Maximum Force            0.004941     0.000450     NO 
 RMS     Force            0.000904     0.000300     NO 
 Maximum Displacement     0.850970     0.001800     NO 
 RMS     Displacement     0.187691     0.001200     NO 
 Predicted change in Energy=-1.596371D-03
 GradGradGradGradGradGradGradGradGradGradGradGradGradGradGradGradGradGrad

                          Input orientation:                          
 ---------------------------------------------------------------------
 Center     Atomic      Atomic             Coordinates (Angstroms)
 Number     Number       Type             X           Y           Z
 ---------------------------------------------------------------------
      1          8           0       -3.367245    1.778589   -1.250352
      2          6           0       -3.526124    2.062816   -0.097663
      3          8           0       -4.317333    3.062160    0.302773
      4          6           0       -2.851372    1.359948    1.068843
      5          6           0       -3.884201    0.581879    1.908524
      6          6           0       -3.293659   -0.611137    2.667181
      7          6           0       -2.267947   -0.281401    3.750434
      8          6           0       -1.785528   -1.507973    4.519519
      9          6           0       -0.747347   -1.166884    5.583952
     10          6           0       -1.953929    2.344219    1.829286
     11         16           0       -2.800582    3.448377    2.971654
     12          6           0       -1.389357    4.138467    3.806656
     13          6           0       -0.819117    5.330147    3.354879
     14          6           0        0.274409    5.872458    4.027474
     15          6           0        0.797420    5.227022    5.147288
     16          6           0        0.226235    4.036980    5.597426
     17          6           0       -0.868816    3.491779    4.930784
     18          8           0       -0.761677    2.311827    1.737479
     19          1           0       -4.703233    3.458938   -0.491998
     20          1           0       -2.151963    0.649171    0.606605
     21          1           0       -4.656547    0.201678    1.219920
     22          1           0       -4.405704    1.265258    2.598110
     23          1           0       -4.128084   -1.170858    3.123669
     24          1           0       -2.833263   -1.299791    1.936001
     25          1           0       -2.701367    0.448866    4.454991
     26          1           0       -1.389307    0.214139    3.299892
     27          1           0       -1.361594   -2.240344    3.810121
     28          1           0       -2.651424   -2.005440    4.990826
     29          1           0       -0.413287   -2.063682    6.127636
     30          1           0        0.142392   -0.698402    5.132429
     31          1           0       -1.157254   -0.460169    6.324034
     32          1           0       -1.231468    5.826261    2.473524
     33          1           0        0.722400    6.803477    3.672160
     34          1           0        1.656130    5.653369    5.671934
     35          1           0        0.635299    3.528968    6.473983
     36          1           0       -1.320555    2.558787    5.276528
 ---------------------------------------------------------------------
                    Distance matrix (angstroms):
                    1          2          3          4          5
     1  O    0.000000
     2  C    1.197798   0.000000
     3  O    2.227649   1.336057   0.000000
     4  C    2.412478   1.519885   2.373485   0.000000
     5  C    3.417287   2.519162   2.986274   1.541813   0.000000
     6  C    4.589473   3.853365   4.486808   2.575942   1.532184
     7  C    5.519046   4.678270   5.221662   3.197709   2.598108
     8  C    6.826033   6.090860   6.713948   4.611741   3.948317
     9  C    7.889701   7.101642   7.649868   5.585518   5.138755
    10  C    3.435342   2.502823   2.903681   1.533776   2.614970
    11  S    4.575437   3.444836   3.093966   2.825740   3.243653
    12  C    5.920675   4.910989   4.691341   4.165727   4.740936
    13  C    6.349383   5.470227   5.166878   5.011836   5.833757
    14  C    7.607684   6.780426   6.546393   6.235925   7.055084
    15  C    8.376510   7.497650   7.369984   6.700871   7.347416
    16  C    8.056394   7.100110   7.044688   6.094771   6.514706
    17  C    6.883575   5.864171   5.787515   4.836302   5.166635
    18  O    4.000057   3.327450   3.906926   2.391647   3.573812
    19  H    2.276739   1.868219   0.968510   3.204898   3.835464
    20  H    2.490137   2.093491   3.256326   1.099109   2.167987
    21  H    3.201748   2.545135   3.023009   2.150132   1.102382
    22  H    4.019025   2.945666   2.916375   2.182561   1.102044
    23  H    5.330119   4.603909   5.090355   3.501040   2.146659
    24  H    4.462556   3.990360   4.888407   2.797588   2.155437
    25  H    5.895973   4.900175   5.165421   3.509782   2.810923
    26  H    5.202352   4.418934   5.066290   2.903118   2.880214
    27  H    6.766302   6.202673   7.011023   4.764047   4.236102
    28  H    7.333728   6.573319   7.101667   5.171824   4.208865
    29  H    8.827435   8.091482   8.685900   6.576996   6.070185
    30  H    7.693694   6.959611   7.573411   5.450886   5.314709
    31  H    8.201672   7.294874   7.658230   5.813768   5.293282
    32  H    5.900207   5.102937   4.677069   4.954309   5.904215
    33  H    8.136696   7.398337   7.123842   7.012925   7.939739
    34  H    9.389689   8.546115   8.439462   7.742060   8.401103
    35  H    8.874093   7.915401   7.926557   6.788009   7.067859
    36  H    6.884607   5.830305   5.828577   4.635217   4.671606
                    6          7          8          9         10
     6  C    0.000000
     7  C    1.527824   0.000000
     8  C    2.551456   1.526007   0.000000
     9  C    3.911536   2.541278   1.525510   0.000000
    10  C    3.351279   3.268531   4.701605   5.280265   0.000000
    11  S    4.100668   3.847264   5.290711   5.686871   1.800274
    12  C    5.242472   4.506697   5.705034   5.631848   2.729113
    13  C    6.472645   5.809048   7.003586   6.869157   3.539914
    14  C    7.524527   6.664106   7.678295   7.281411   4.716565
    15  C    7.547977   6.456811   7.240572   6.592345   5.185519
    16  C    6.525410   5.317964   5.996297   5.294170   4.670913
    17  C    5.276142   4.193767   5.099708   4.705796   3.480467
    18  O    3.977310   3.611879   4.835173   5.186231   1.196220
    19  H    5.341612   6.157839   7.635346   8.600258   3.766913
    20  H    2.671670   3.280713   4.483128   5.481331   2.099370
    21  H    2.147719   3.513158   4.696063   6.016609   3.502279
    22  H    2.182263   2.879238   4.271761   5.311699   2.786835
    23  H    1.103601   2.155012   2.747656   4.181195   4.331068
    24  H    1.104913   2.156123   2.795649   4.204315   3.750124
    25  H    2.161176   1.103424   2.161514   2.775499   3.323455
    26  H    2.169783   1.104787   2.147126   2.745226   2.649287
    27  H    2.773717   2.159281   1.104234   2.162428   5.029193
    28  H    2.784937   2.158225   1.104255   2.163443   5.422303
    29  H    4.730875   3.502481   2.185840   1.100652   6.346572
    30  H    4.229835   2.809543   2.178977   1.102263   4.956092
    31  H    4.237876   2.808739   2.179197   1.102356   5.357428
    32  H    6.762413   6.325214   7.634400   7.668977   3.614085
    33  H    8.492067   7.690501   8.722839   8.327170   5.517599
    34  H    8.530708   7.369670   8.028568   7.231894   6.224865
    35  H    6.860679   5.510487   5.920398   4.975428   5.448021
    36  H    4.555244   3.360533   4.162667   3.782023   3.511506
                   11         12         13         14         15
    11  S    0.000000
    12  C    1.779048   0.000000
    13  C    2.759370   1.396200   0.000000
    14  C    4.055428   2.413214   1.393659   0.000000
    15  C    4.565368   2.786439   2.415897   1.394315   0.000000
    16  C    4.050031   2.413978   2.791784   2.415792   1.394660
    17  C    2.751689   1.397437   2.421888   2.791158   2.415427
    18  O    2.640467   2.830564   3.424840   4.358399   4.749310
    19  H    3.951844   5.470097   5.778082   7.143362   8.073714
    20  H    3.721520   4.795528   5.589366   6.698683   7.090373
    21  H    4.129677   5.732717   6.751674   8.022121   8.391905
    22  H    2.735317   4.337542   5.473539   6.721074   7.019002
    23  H    4.808607   6.012989   7.298341   8.355065   8.323972
    24  H    4.859912   5.929492   7.072911   8.091541   8.129792
    25  H    3.347715   3.969240   5.346028   6.201078   5.962513
    26  H    3.543971   3.956914   5.147978   5.942550   5.772664
    27  H    5.927500   6.378873   7.603542   8.278968   7.887390
    28  H    5.817510   6.382998   7.735923   8.458713   8.014207
    29  H    6.785439   6.693752   7.907059   8.238078   7.455284
    30  H    5.525017   5.243971   6.358268   6.664424   5.961538
    31  H    5.405156   5.247716   6.515978   6.886655   6.127775
    32  H    2.892159   2.156576   1.092222   2.164384   3.409471
    33  H    4.915161   3.402923   2.155840   1.092584   2.160288
    34  H    5.658249   3.879327   3.405887   2.159028   1.092889
    35  H    4.906942   3.403726   3.884377   3.406992   2.160970
    36  H    2.879982   2.158853   3.409488   3.883872   3.409106
                   16         17         18         19         20
    16  C    0.000000
    17  C    1.393123   0.000000
    18  O    4.341810   3.406018   0.000000
    19  H    7.855881   6.641565   4.671434   0.000000
    20  H    6.483931   5.331548   2.444626   3.951038   0.000000
    21  H    7.596950   6.240367   4.459889   3.680025   2.617126
    22  H    6.175208   4.786266   3.887792   3.801253   3.070017
    23  H    7.225036   5.968976   5.038186   5.902445   3.681463
    24  H    7.158749   5.982217   4.168293   5.660165   2.455589
    25  H    4.769756   3.583844   3.823336   6.127047   3.892563
    26  H    4.743706   3.697789   2.689861   5.990765   2.832789
    27  H    6.717176   5.861395   5.037659   7.883946   4.385943
    28  H    6.720098   5.779335   5.726623   8.008165   5.149545
    29  H    6.156962   5.701149   6.208054   9.629253   6.392523
    30  H    4.758896   4.315184   4.626500   8.508685   5.250057
    31  H    4.760919   4.200266   5.373726   8.625060   5.908390
    32  H    3.883966   3.408731   3.621286   5.143120   5.579871
    33  H    3.406807   3.883742   5.110811   7.613385   7.452186
    34  H    2.159367   3.405456   5.700143   9.124203   8.074722
    35  H    1.092594   2.155275   5.086005   8.776657   7.105504
    36  H    2.163467   1.092740   3.591407   6.747494   5.113321
                   21         22         23         24         25
    21  H    0.000000
    22  H    1.758843   0.000000
    23  H    2.405699   2.507578   0.000000
    24  H    2.468106   3.080655   1.761743   0.000000
    25  H    3.788075   2.649390   2.536030   3.069285   0.000000
    26  H    3.873151   3.270474   3.074113   2.497437   1.763761
    27  H    4.850704   4.798419   3.044419   2.561792   3.072898
    28  H    4.807455   4.415887   2.522564   3.140535   2.512614
    29  H    6.871883   6.283214   4.860109   4.899961   3.787604
    30  H    6.256811   5.564522   4.742920   4.408326   3.140399
    31  H    6.223751   5.235651   4.424166   4.771667   2.589199
    32  H    6.703627   5.558241   7.600839   7.323612   5.916350
    33  H    8.861732   7.623838   9.349763   9.017757   7.260585
    34  H    9.454695   8.090102   9.301659   9.080655   6.896056
    35  H    8.165762   6.749703   7.483501   7.479379   4.969577
    36  H    5.756811   4.285474   5.140747   5.323160   2.652043
                   26         27         28         29         30
    26  H    0.000000
    27  H    2.507107   0.000000
    28  H    3.062470   1.764343   0.000000
    29  H    3.759949   2.510253   2.510972   0.000000
    30  H    2.556760   2.527461   3.087686   1.778540   0.000000
    31  H    3.107084   3.087157   2.529397   1.778570   1.779257
    32  H    5.674832   8.177625   8.347971   8.733450   7.178335
    33  H    6.929450   9.281852   9.524630   9.270688   7.664658
    34  H    6.669820   8.653538   8.813415   8.002689   6.551905
    35  H    5.016171   6.660984   6.605450   5.700633   4.462441
    36  H    3.067441   5.018336   4.762878   4.786934   3.573549
                   31         32         33         34         35
    31  H    0.000000
    32  H    7.372323   0.000000
    33  H    7.957769   2.491843   0.000000
    34  H    6.761340   4.312533   2.488714   0.000000
    35  H    4.375951   4.976550   4.310477   2.489670   0.000000
    36  H    3.199692   4.305945   4.976450   4.312011   2.490083
                   36
    36  H    0.000000
 Stoichiometry    C14H18O3S
 Framework group  C1[X(C14H18O3S)]
 Deg. of freedom   102
 Full point group                 C1      NOp   1
 Largest Abelian subgroup         C1      NOp   1
 Largest concise Abelian subgroup C1      NOp   1
                         Standard orientation:                         
 ---------------------------------------------------------------------
 Center     Atomic      Atomic             Coordinates (Angstroms)
 Number     Number       Type             X           Y           Z
 ---------------------------------------------------------------------
      1          8           0       -3.360473   -2.595357    1.124766
      2          6           0       -2.621886   -2.100668    0.321964
      3          8           0       -2.189571   -2.747473   -0.764220
      4          6           0       -2.053758   -0.694285    0.418745
      5          6           0       -2.630928    0.205138   -0.692607
      6          6           0       -2.646041    1.695668   -0.338093
      7          6           0       -1.282556    2.357395   -0.145027
      8          6           0       -1.371037    3.857051    0.123120
      9          6           0       -0.004192    4.500912    0.333737
     10          6           0       -0.524909   -0.750014    0.528229
     11         16           0        0.358426   -1.010915   -1.018587
     12          6           0        2.018018   -0.694932   -0.460987
     13          6           0        2.825783   -1.747803   -0.026991
     14          6           0        4.130842   -1.492192    0.389867
     15          6           0        4.627931   -0.189593    0.374016
     16          6           0        3.819779    0.860822   -0.060261
     17          6           0        2.515399    0.610844   -0.480852
     18          8           0        0.042278   -0.538075    1.559889
     19          1           0       -2.589067   -3.629653   -0.751056
     20          1           0       -2.387090   -0.319543    1.396752
     21          1           0       -3.670160   -0.114193   -0.875011
     22          1           0       -2.092620    0.033016   -1.638704
     23          1           0       -3.192657    2.229311   -1.134567
     24          1           0       -3.243669    1.832421    0.581130
     25          1           0       -0.658993    2.178395   -1.037592
     26          1           0       -0.749557    1.884195    0.699099
     27          1           0       -2.003719    4.032546    1.010953
     28          1           0       -1.886828    4.347607   -0.721092
     29          1           0       -0.089286    5.581588    0.524346
     30          1           0        0.517076    4.049399    1.193621
     31          1           0        0.636901    4.366943   -0.552965
     32          1           0        2.426645   -2.764378   -0.012396
     33          1           0        4.761936   -2.315759    0.732207
     34          1           0        5.651092    0.008516    0.703107
     35          1           0        4.206944    1.882448   -0.072309
     36          1           0        1.875702    1.428969   -0.820762
 ---------------------------------------------------------------------
 Rotational constants (GHZ):           0.4121487           0.2888645           0.1875505
 Standard basis: def2SVP (5D, 7F)
 There are   364 symmetry adapted cartesian basis functions of A   symmetry.
 There are   346 symmetry adapted basis functions of A   symmetry.
   346 basis functions,   588 primitive gaussians,   364 cartesian basis functions
    71 alpha electrons       71 beta electrons
       nuclear repulsion energy      1453.5875219953 Hartrees.
 NAtoms=   36 NActive=   36 NUniq=   36 SFac= 1.00D+00 NAtFMM=   60 NAOKFM=F Big=F
 Integral buffers will be    131072 words long.
 Raffenetti 2 integral format.
 Two-electron integral symmetry is turned on.
 Nuclear repulsion after empirical dispersion term =     1453.5612033767 Hartrees.
 One-electron integrals computed using PRISM.
   1 Symmetry operations used in ECPInt.
 ECPInt:  NShTT=   13530 NPrTT=   49126 LenC2=   12332 LenP2D=   31222.
 LDataN:  DoStor=T MaxTD1= 4 Len=   56
 NBasis=   346 RedAO= T EigKep=  2.87D-04  NBF=   346
 NBsUse=   346 1.00D-06 EigRej= -1.00D+00 NBFU=   346
 Initial guess from the checkpoint file:  "MAHT6_clust-14.chk"
 B after Tr=     0.000000    0.000000   -0.000000
         Rot=    0.999730    0.017011    0.001952   -0.015691 Ang=   2.66 deg.
 ExpMin= 1.22D-01 ExpMax= 9.18D+03 ExpMxC= 1.38D+03 IAcc=3 IRadAn=         5 AccDes= 0.00D+00
 Harris functional with IExCor= 4639 and IRadAn=       5 diagonalized for initial guess.
 HarFok:  IExCor= 4639 AccDes= 0.00D+00 IRadAn=         5 IDoV= 1 UseB2=F ITyADJ=14
 ICtDFT=  3500011 ScaDFX=  1.000000  1.000000  1.000000  1.000000
 FoFCou: FMM=F IPFlag=           0 FMFlag=      100000 FMFlg1=           0
         NFxFlg=           0 DoJE=T BraDBF=F KetDBF=T FulRan=T
         wScrn=  0.000000 ICntrl=       500 IOpCl=  0 I1Cent=   200000004 NGrid=           0
         NMat0=    1 NMatS0=      1 NMatT0=    0 NMatD0=    1 NMtDS0=    0 NMtDT0=    0
 Petite list used in FoFCou.
 Requested convergence on RMS density matrix=1.00D-08 within 128 cycles.
 Requested convergence on MAX density matrix=1.00D-06.
 Requested convergence on             energy=1.00D-06.
 No special actions if energy rises.
 Integral accuracy reduced to 1.0D-05 until final iterations.
 Initial convergence to 1.0D-05 achieved.  Increase integral accuracy.
 SCF Done:  E(RwB97XD) =  -1167.29872242     A.U. after   16 cycles
            NFock= 16  Conv=0.80D-08     -V/T= 2.0076
   1 Symmetry operations used in ECPInt.
 ECPInt:  NShTT=   13530 NPrTT=   49126 LenC2=   12332 LenP2D=   31222.
 LDataN:  DoStor=T MaxTD1= 5 Len=  102
 Calling FoFJK, ICntrl=      2127 FMM=F ISym2X=0 I1Cent= 0 IOpClX= 0 NMat=1 NMatS=1 NMatT=0.
