 Entering Gaussian System, Link 0=g16
 Input=90000042_noNi_00000.com
 Output=90000042_noNi_00000.log
 Initial command:
 /uufs/chpc.utah.edu/sys/installdir/gaussian16/C01/AVX/g16/l1.exe "/scratch/general/vast/u6053008/GAUSSSCRDIR/6653576-notchpeak.peaks/Gau-1403229.inp" -scrdir="/scratch/general/vast/u6053008/GAUSSSCRDIR/6653576-notchpeak.peaks/"
 Entering Link 1 = /uufs/chpc.utah.edu/sys/installdir/gaussian16/C01/AVX/g16/l1.exe PID=   1403230.
  
 Copyright (c) 1988-2019, Gaussian, Inc.  All Rights Reserved.
  
 This is part of the Gaussian(R) 16 program.  It is based on
 the Gaussian(R) 09 system (copyright 2009, Gaussian, Inc.),
 the Gaussian(R) 03 system (copyright 2003, Gaussian, Inc.),
 the Gaussian(R) 98 system (copyright 1998, Gaussian, Inc.),
 the Gaussian(R) 94 system (copyright 1995, Gaussian, Inc.),
 the Gaussian 92(TM) system (copyright 1992, Gaussian, Inc.),
 the Gaussian 90(TM) system (copyright 1990, Gaussian, Inc.),
 the Gaussian 88(TM) system (copyright 1988, Gaussian, Inc.),
 the Gaussian 86(TM) system (copyright 1986, Carnegie Mellon
 University), and the Gaussian 82(TM) system (copyright 1983,
 Carnegie Mellon University). Gaussian is a federally registered
 trademark of Gaussian, Inc.
  
 This software contains proprietary and confidential information,
 including trade secrets, belonging to Gaussian, Inc.
  
 This software is provided under written license and may be
 used, copied, transmitted, or stored only in accord with that
 written license.
  
 The following legend is applicable only to US Government
 contracts under FAR:
  
                    RESTRICTED RIGHTS LEGEND
  
 Use, reproduction and disclosure by the US Government is
 subject to restrictions as set forth in subparagraphs (a)
 and (c) of the Commercial Computer Software - Restricted
 Rights clause in FAR 52.227-19.
  
 Gaussian, Inc.
 340 Quinnipiac St., Bldg. 40, Wallingford CT 06492
  
  
 ---------------------------------------------------------------
 Warning -- This program may not be used in any manner that
 competes with the business of Gaussian, Inc. or will provide
 assistance to any competitor of Gaussian, Inc.  The licensee
 of this program is prohibited from giving any competitor of
 Gaussian, Inc. access to this program.  By using this program,
 the user acknowledges that Gaussian, Inc. is engaged in the
 business of creating and licensing software in the field of
 computational chemistry and represents and warrants to the
 licensee that it is not a competitor of Gaussian, Inc. and that
 it will not use this program in any manner prohibited above.
 ---------------------------------------------------------------
  

 Cite this work as:
 Gaussian 16, Revision C.01,
 M. J. Frisch, G. W. Trucks, H. B. Schlegel, G. E. Scuseria, 
 M. A. Robb, J. R. Cheeseman, G. Scalmani, V. Barone, 
 G. A. Petersson, H. Nakatsuji, X. Li, M. Caricato, A. V. Marenich, 
 J. Bloino, B. G. Janesko, R. Gomperts, B. Mennucci, H. P. Hratchian, 
 J. V. Ortiz, A. F. Izmaylov, J. L. Sonnenberg, D. Williams-Young, 
 F. Ding, F. Lipparini, F. Egidi, J. Goings, B. Peng, A. Petrone, 
 T. Henderson, D. Ranasinghe, V. G. Zakrzewski, J. Gao, N. Rega, 
 G. Zheng, W. Liang, M. Hada, M. Ehara, K. Toyota, R. Fukuda, 
 J. Hasegawa, M. Ishida, T. Nakajima, Y. Honda, O. Kitao, H. Nakai, 
 T. Vreven, K. Throssell, J. A. Montgomery, Jr., J. E. Peralta, 
 F. Ogliaro, M. J. Bearpark, J. J. Heyd, E. N. Brothers, K. N. Kudin, 
 V. N. Staroverov, T. A. Keith, R. Kobayashi, J. Normand, 
 K. Raghavachari, A. P. Rendell, J. C. Burant, S. S. Iyengar, 
 J. Tomasi, M. Cossi, J. M. Millam, M. Klene, C. Adamo, R. Cammi, 
 J. W. Ochterski, R. L. Martin, K. Morokuma, O. Farkas, 
 J. B. Foresman, and D. J. Fox, Gaussian, Inc., Wallingford CT, 2019.
 
 ******************************************
 Gaussian 16:  ES64L-G16RevC.01  3-Jul-2019
                29-Sep-2025 
 ******************************************
 %NProcShared=16
 Will use up to   16 processors via shared memory.
 %Mem=32GB
 %chk=90000042_noNi_00000.chk
 ----------------------------------------------------------------------
 # PBEPBE/6-31+G(d,p) denfit int=(grid=ultrafine) empiricaldispersion=G
 D3BJ opt=(CalcFC,recalcfc=50) freq=noraman
 ----------------------------------------------------------------------
 1/10=4,18=20,19=15,26=4,38=1,71=50/1,3;
 2/9=110,12=2,17=6,18=5,40=1/2;
 3/5=1,6=6,7=111,11=2,25=1,30=1,71=2,74=1009,75=-5,82=47,124=41,140=1/1,2,3;
 4//1;
 5/5=2,38=5/2;
 8/6=4,10=90,11=11/1;
 11/6=1,8=1,9=11,15=111,16=1/1,2,10;
 10/6=1,13=1/2;
 6/7=2,8=2,9=2,10=2,28=1/1;
 7/10=1,25=1/1,2,3,16;
 1/10=4,18=20,19=15,26=4,71=50/3(3);
 2/9=110/2;
 7/9=1,25=1,44=-1/16;
 99//99;
 2/9=110/2;
 3/5=1,6=6,7=111,11=2,25=1,30=1,71=2,74=1009,75=-5,82=47,124=41,140=1/1,2,3;
 4/5=5,16=3,69=1/1;
 5/5=2,38=5/2;
 8/6=4,10=90,11=11/1;
 11/6=1,8=1,9=11,15=111,16=1/1,2,10;
 10/6=1,13=1/2;
 7/10=1,25=1/1,2,3,16;
 1/18=20,19=15,26=4,71=50/3(-8);
 2/9=110/2;
 6/7=2,8=2,9=2,10=2,19=2,28=1/1;
 7/9=1,25=1,44=-1/16;
 99/9=1/99;
 ------------------------------
 90000042_noNi_00000_opt_recalc
 ------------------------------
 Symbolic Z-matrix:
 Charge =  1 Multiplicity = 1
 O                     4.40087  -1.2469    0.72986 
 S                     3.15222  -0.63906   0.25012 
 C                     3.43482   1.10123  -0.21637 
 C                     2.18091   1.77665  -0.78587 
 C                     1.16106   2.18781   0.30186 
 C                    -0.30158   2.30838  -0.14951 
 N                    -1.14604   1.05299  -0.06362 
 C                    -1.22173   0.51106   1.41427 
 N                    -2.18963  -0.52291   1.55988 
 C                    -3.52129  -0.0565    1.1488 
 N                    -3.54556   0.38372  -0.25753 
 C                    -3.35949  -0.73807  -1.198 
 P                    -1.69921  -1.62277  -0.9997 
 C                    -0.65377  -0.05115  -0.98159 
 C                    -1.79481  -1.77492   0.88627 
 C                    -2.61663   1.44141  -0.4554 
 O                     2.76925  -1.28904  -1.24042 
 O                     1.89017  -0.72508   1.02233 
 H                     4.2638    1.06779  -0.9399 
 H                     3.801     1.58183   0.70705 
 H                     1.73611   1.11576  -1.54728 
 H                     2.51409   2.67422  -1.33506 
 H                     1.44715   3.17912   0.69273 
 H                     1.23099   1.50362   1.16083 
 H                    -0.37626   2.65667  -1.1954 
 H                    -0.82551   3.04639   0.48149 
 H                    -1.48768   1.39078   2.02419 
 H                    -0.21519   0.14693   1.66206 
 H                    -3.81368   0.79292   1.78953 
 H                    -4.2496   -0.86957   1.28478 
 H                    -3.45334  -0.36331  -2.23173 
 H                    -4.17466  -1.46476  -1.04624 
 H                    -0.59566   0.37005  -1.99976 
 H                     0.35465  -0.33147  -0.6469 
 H                    -0.81132  -2.09723   1.26718 
 H                    -2.52213  -2.56222   1.14413 
 H                    -2.86686   2.30065   0.18915 
 H                    -2.57595   1.75653  -1.51109 
 H                     3.51387  -1.8721   -1.50819 
 

 GradGradGradGradGradGradGradGradGradGradGradGradGradGradGradGradGradGrad
 Berny optimization.
 Initialization pass.
                           ----------------------------
                           !    Initial Parameters    !
                           ! (Angstroms and Degrees)  !
 --------------------------                            --------------------------
 ! Name  Definition              Value          Derivative Info.                !
 --------------------------------------------------------------------------------
 ! R1    R(1,2)                  1.4693         calculate D2E/DX2 analytically  !
 ! R2    R(2,3)                  1.8238         calculate D2E/DX2 analytically  !
 ! R3    R(2,17)                 1.6706         calculate D2E/DX2 analytically  !
 ! R4    R(2,18)                 1.4821         calculate D2E/DX2 analytically  !
 ! R5    R(3,4)                  1.5339         calculate D2E/DX2 analytically  !
 ! R6    R(3,19)                 1.1008         calculate D2E/DX2 analytically  !
 ! R7    R(3,20)                 1.1035         calculate D2E/DX2 analytically  !
 ! R8    R(4,5)                  1.5467         calculate D2E/DX2 analytically  !
 ! R9    R(4,21)                 1.102          calculate D2E/DX2 analytically  !
 ! R10   R(4,22)                 1.1037         calculate D2E/DX2 analytically  !
 ! R11   R(5,6)                  1.5354         calculate D2E/DX2 analytically  !
 ! R12   R(5,23)                 1.1033         calculate D2E/DX2 analytically  !
 ! R13   R(5,24)                 1.1004         calculate D2E/DX2 analytically  !
 ! R14   R(6,7)                  1.5154         calculate D2E/DX2 analytically  !
 ! R15   R(6,25)                 1.1049         calculate D2E/DX2 analytically  !
 ! R16   R(6,26)                 1.1033         calculate D2E/DX2 analytically  !
 ! R17   R(7,8)                  1.5759         calculate D2E/DX2 analytically  !
 ! R18   R(7,14)                 1.5179         calculate D2E/DX2 analytically  !
 ! R19   R(7,16)                 1.5707         calculate D2E/DX2 analytically  !
 ! R20   R(8,9)                  1.4238         calculate D2E/DX2 analytically  !
 ! R21   R(8,27)                 1.103          calculate D2E/DX2 analytically  !
 ! R22   R(8,28)                 1.0987         calculate D2E/DX2 analytically  !
 ! R23   R(9,10)                 1.4696         calculate D2E/DX2 analytically  !
 ! R24   R(9,15)                 1.4755         calculate D2E/DX2 analytically  !
 ! R25   R(10,11)                1.4738         calculate D2E/DX2 analytically  !
 ! R26   R(10,29)                1.1034         calculate D2E/DX2 analytically  !
 ! R27   R(10,30)                1.1            calculate D2E/DX2 analytically  !
 ! R28   R(11,12)                1.4756         calculate D2E/DX2 analytically  !
 ! R29   R(11,16)                1.4215         calculate D2E/DX2 analytically  !
 ! R30   R(12,13)                1.8917         calculate D2E/DX2 analytically  !
 ! R31   R(12,31)                1.1036         calculate D2E/DX2 analytically  !
 ! R32   R(12,32)                1.1025         calculate D2E/DX2 analytically  !
 ! R33   R(13,14)                1.8877         calculate D2E/DX2 analytically  !
 ! R34   R(13,15)                1.8945         calculate D2E/DX2 analytically  !
 ! R35   R(14,33)                1.1034         calculate D2E/DX2 analytically  !
 ! R36   R(14,34)                1.0989         calculate D2E/DX2 analytically  !
 ! R37   R(15,35)                1.1028         calculate D2E/DX2 analytically  !
 ! R38   R(15,36)                1.1024         calculate D2E/DX2 analytically  !
 ! R39   R(16,37)                1.1029         calculate D2E/DX2 analytically  !
 ! R40   R(16,38)                1.1025         calculate D2E/DX2 analytically  !
 ! R41   R(17,39)                0.9829         calculate D2E/DX2 analytically  !
 ! A1    A(1,2,3)              110.2795         calculate D2E/DX2 analytically  !
 ! A2    A(1,2,17)             108.9769         calculate D2E/DX2 analytically  !
 ! A3    A(1,2,18)             121.9751         calculate D2E/DX2 analytically  !
 ! A4    A(3,2,17)             100.2865         calculate D2E/DX2 analytically  !
 ! A5    A(3,2,18)             108.7            calculate D2E/DX2 analytically  !
 ! A6    A(17,2,18)            104.3055         calculate D2E/DX2 analytically  !
 ! A7    A(2,3,4)              112.8597         calculate D2E/DX2 analytically  !
 ! A8    A(2,3,19)             104.8222         calculate D2E/DX2 analytically  !
 ! A9    A(2,3,20)             104.6528         calculate D2E/DX2 analytically  !
 ! A10   A(4,3,19)             112.6405         calculate D2E/DX2 analytically  !
 ! A11   A(4,3,20)             112.9652         calculate D2E/DX2 analytically  !
 ! A12   A(19,3,20)            108.2604         calculate D2E/DX2 analytically  !
 ! A13   A(3,4,5)              113.2638         calculate D2E/DX2 analytically  !
 ! A14   A(3,4,21)             108.809          calculate D2E/DX2 analytically  !
 ! A15   A(3,4,22)             107.2207         calculate D2E/DX2 analytically  !
 ! A16   A(5,4,21)             112.2836         calculate D2E/DX2 analytically  !
 ! A17   A(5,4,22)             109.4379         calculate D2E/DX2 analytically  !
 ! A18   A(21,4,22)            105.4116         calculate D2E/DX2 analytically  !
 ! A19   A(4,5,6)              116.2472         calculate D2E/DX2 analytically  !
 ! A20   A(4,5,23)             108.4821         calculate D2E/DX2 analytically  !
 ! A21   A(4,5,24)             109.9854         calculate D2E/DX2 analytically  !
 ! A22   A(6,5,23)             106.2956         calculate D2E/DX2 analytically  !
 ! A23   A(6,5,24)             109.806          calculate D2E/DX2 analytically  !
 ! A24   A(23,5,24)            105.4043         calculate D2E/DX2 analytically  !
 ! A25   A(5,6,7)              116.6867         calculate D2E/DX2 analytically  !
 ! A26   A(5,6,25)             111.556          calculate D2E/DX2 analytically  !
 ! A27   A(5,6,26)             109.6791         calculate D2E/DX2 analytically  !
 ! A28   A(7,6,25)             106.0887         calculate D2E/DX2 analytically  !
 ! A29   A(7,6,26)             104.8975         calculate D2E/DX2 analytically  !
 ! A30   A(25,6,26)            107.3628         calculate D2E/DX2 analytically  !
 ! A31   A(6,7,8)              111.3945         calculate D2E/DX2 analytically  !
 ! A32   A(6,7,14)             112.8047         calculate D2E/DX2 analytically  !
 ! A33   A(6,7,16)             107.6222         calculate D2E/DX2 analytically  !
 ! A34   A(8,7,14)             109.4246         calculate D2E/DX2 analytically  !
 ! A35   A(8,7,16)             105.9017         calculate D2E/DX2 analytically  !
 ! A36   A(14,7,16)            109.4313         calculate D2E/DX2 analytically  !
 ! A37   A(7,8,9)              112.2277         calculate D2E/DX2 analytically  !
 ! A38   A(7,8,27)             104.8253         calculate D2E/DX2 analytically  !
 ! A39   A(7,8,28)             106.348          calculate D2E/DX2 analytically  !
 ! A40   A(9,8,27)             111.0229         calculate D2E/DX2 analytically  !
 ! A41   A(9,8,28)             111.0417         calculate D2E/DX2 analytically  !
 ! A42   A(27,8,28)            111.1315         calculate D2E/DX2 analytically  !
 ! A43   A(8,9,10)             110.9103         calculate D2E/DX2 analytically  !
 ! A44   A(8,9,15)             112.8064         calculate D2E/DX2 analytically  !
 ! A45   A(10,9,15)            112.5848         calculate D2E/DX2 analytically  !
 ! A46   A(9,10,11)            112.1246         calculate D2E/DX2 analytically  !
 ! A47   A(9,10,29)            108.7833         calculate D2E/DX2 analytically  !
 ! A48   A(9,10,30)            109.316          calculate D2E/DX2 analytically  !
 ! A49   A(11,10,29)           108.6499         calculate D2E/DX2 analytically  !
 ! A50   A(11,10,30)           109.1373         calculate D2E/DX2 analytically  !
 ! A51   A(29,10,30)           108.7703         calculate D2E/DX2 analytically  !
 ! A52   A(10,11,12)           112.2718         calculate D2E/DX2 analytically  !
 ! A53   A(10,11,16)           110.1391         calculate D2E/DX2 analytically  !
 ! A54   A(12,11,16)           113.2358         calculate D2E/DX2 analytically  !
 ! A55   A(11,12,13)           113.5399         calculate D2E/DX2 analytically  !
 ! A56   A(11,12,31)           109.1546         calculate D2E/DX2 analytically  !
 ! A57   A(11,12,32)           108.6689         calculate D2E/DX2 analytically  !
 ! A58   A(13,12,31)           109.3689         calculate D2E/DX2 analytically  !
 ! A59   A(13,12,32)           109.04           calculate D2E/DX2 analytically  !
 ! A60   A(31,12,32)           106.851          calculate D2E/DX2 analytically  !
 ! A61   A(12,13,14)            95.6072         calculate D2E/DX2 analytically  !
 ! A62   A(12,13,15)            95.6024         calculate D2E/DX2 analytically  !
 ! A63   A(14,13,15)            94.8911         calculate D2E/DX2 analytically  !
 ! A64   A(7,14,13)            115.5823         calculate D2E/DX2 analytically  !
 ! A65   A(7,14,33)            107.3046         calculate D2E/DX2 analytically  !
 ! A66   A(7,14,34)            107.396          calculate D2E/DX2 analytically  !
 ! A67   A(13,14,33)           109.7634         calculate D2E/DX2 analytically  !
 ! A68   A(13,14,34)           107.3841         calculate D2E/DX2 analytically  !
 ! A69   A(33,14,34)           109.2751         calculate D2E/DX2 analytically  !
 ! A70   A(9,15,13)            113.5671         calculate D2E/DX2 analytically  !
 ! A71   A(9,15,35)            109.2039         calculate D2E/DX2 analytically  !
 ! A72   A(9,15,36)            108.8238         calculate D2E/DX2 analytically  !
 ! A73   A(13,15,35)           108.8025         calculate D2E/DX2 analytically  !
 ! A74   A(13,15,36)           108.8745         calculate D2E/DX2 analytically  !
 ! A75   A(35,15,36)           107.3886         calculate D2E/DX2 analytically  !
 ! A76   A(7,16,11)            113.1483         calculate D2E/DX2 analytically  !
 ! A77   A(7,16,37)            105.0297         calculate D2E/DX2 analytically  !
 ! A78   A(7,16,38)            105.9613         calculate D2E/DX2 analytically  !
 ! A79   A(11,16,37)           110.4912         calculate D2E/DX2 analytically  !
 ! A80   A(11,16,38)           111.7201         calculate D2E/DX2 analytically  !
 ! A81   A(37,16,38)           110.2007         calculate D2E/DX2 analytically  !
 ! A82   A(2,17,39)            107.4693         calculate D2E/DX2 analytically  !
 ! D1    D(1,2,3,4)            177.4341         calculate D2E/DX2 analytically  !
 ! D2    D(1,2,3,19)            54.4982         calculate D2E/DX2 analytically  !
 ! D3    D(1,2,3,20)           -59.3433         calculate D2E/DX2 analytically  !
 ! D4    D(17,2,3,4)            62.6374         calculate D2E/DX2 analytically  !
 ! D5    D(17,2,3,19)          -60.2986         calculate D2E/DX2 analytically  !
 ! D6    D(17,2,3,20)         -174.14           calculate D2E/DX2 analytically  !
 ! D7    D(18,2,3,4)           -46.4223         calculate D2E/DX2 analytically  !
 ! D8    D(18,2,3,19)         -169.3583         calculate D2E/DX2 analytically  !
 ! D9    D(18,2,3,20)           76.8003         calculate D2E/DX2 analytically  !
 ! D10   D(1,2,17,39)           -5.4959         calculate D2E/DX2 analytically  !
 ! D11   D(3,2,17,39)          110.2841         calculate D2E/DX2 analytically  !
 ! D12   D(18,2,17,39)        -137.2238         calculate D2E/DX2 analytically  !
 ! D13   D(2,3,4,5)             77.597          calculate D2E/DX2 analytically  !
 ! D14   D(2,3,4,21)           -48.0272         calculate D2E/DX2 analytically  !
 ! D15   D(2,3,4,22)          -161.5733         calculate D2E/DX2 analytically  !
 ! D16   D(19,3,4,5)          -163.9365         calculate D2E/DX2 analytically  !
 ! D17   D(19,3,4,21)           70.4393         calculate D2E/DX2 analytically  !
 ! D18   D(19,3,4,22)          -43.1068         calculate D2E/DX2 analytically  !
 ! D19   D(20,3,4,5)           -40.8799         calculate D2E/DX2 analytically  !
 ! D20   D(20,3,4,21)         -166.5041         calculate D2E/DX2 analytically  !
 ! D21   D(20,3,4,22)           79.9498         calculate D2E/DX2 analytically  !
 ! D22   D(3,4,5,6)           -155.1628         calculate D2E/DX2 analytically  !
 ! D23   D(3,4,5,23)            85.1888         calculate D2E/DX2 analytically  !
 ! D24   D(3,4,5,24)           -29.6193         calculate D2E/DX2 analytically  !
 ! D25   D(21,4,5,6)           -31.421          calculate D2E/DX2 analytically  !
 ! D26   D(21,4,5,23)         -151.0694         calculate D2E/DX2 analytically  !
 ! D27   D(21,4,5,24)           94.1225         calculate D2E/DX2 analytically  !
 ! D28   D(22,4,5,6)            85.2697         calculate D2E/DX2 analytically  !
 ! D29   D(22,4,5,23)          -34.3787         calculate D2E/DX2 analytically  !
 ! D30   D(22,4,5,24)         -149.1867         calculate D2E/DX2 analytically  !
 ! D31   D(4,5,6,7)             89.1746         calculate D2E/DX2 analytically  !
 ! D32   D(4,5,6,25)           -32.9701         calculate D2E/DX2 analytically  !
 ! D33   D(4,5,6,26)          -151.7893         calculate D2E/DX2 analytically  !
 ! D34   D(23,5,6,7)          -150.0022         calculate D2E/DX2 analytically  !
 ! D35   D(23,5,6,25)           87.8532         calculate D2E/DX2 analytically  !
 ! D36   D(23,5,6,26)          -30.966          calculate D2E/DX2 analytically  !
 ! D37   D(24,5,6,7)           -36.4597         calculate D2E/DX2 analytically  !
 ! D38   D(24,5,6,25)         -158.6044         calculate D2E/DX2 analytically  !
 ! D39   D(24,5,6,26)           82.5765         calculate D2E/DX2 analytically  !
 ! D40   D(5,6,7,8)             59.617          calculate D2E/DX2 analytically  !
 ! D41   D(5,6,7,14)           -63.9007         calculate D2E/DX2 analytically  !
 ! D42   D(5,6,7,16)           175.288          calculate D2E/DX2 analytically  !
 ! D43   D(25,6,7,8)          -175.4265         calculate D2E/DX2 analytically  !
 ! D44   D(25,6,7,14)           61.0557         calculate D2E/DX2 analytically  !
 ! D45   D(25,6,7,16)          -59.7555         calculate D2E/DX2 analytically  !
 ! D46   D(26,6,7,8)           -61.966          calculate D2E/DX2 analytically  !
 ! D47   D(26,6,7,14)          174.5162         calculate D2E/DX2 analytically  !
 ! D48   D(26,6,7,16)           53.705          calculate D2E/DX2 analytically  !
 ! D49   D(6,7,8,9)            169.7831         calculate D2E/DX2 analytically  !
 ! D50   D(6,7,8,27)            49.1826         calculate D2E/DX2 analytically  !
 ! D51   D(6,7,8,28)           -68.6103         calculate D2E/DX2 analytically  !
 ! D52   D(14,7,8,9)           -64.7973         calculate D2E/DX2 analytically  !
 ! D53   D(14,7,8,27)          174.6021         calculate D2E/DX2 analytically  !
 ! D54   D(14,7,8,28)           56.8093         calculate D2E/DX2 analytically  !
 ! D55   D(16,7,8,9)            53.0588         calculate D2E/DX2 analytically  !
 ! D56   D(16,7,8,27)          -67.5417         calculate D2E/DX2 analytically  !
 ! D57   D(16,7,8,28)          174.6654         calculate D2E/DX2 analytically  !
 ! D58   D(6,7,14,13)         -177.14           calculate D2E/DX2 analytically  !
 ! D59   D(6,7,14,33)          -54.3326         calculate D2E/DX2 analytically  !
 ! D60   D(6,7,14,34)           63.0505         calculate D2E/DX2 analytically  !
 ! D61   D(8,7,14,13)           58.258          calculate D2E/DX2 analytically  !
 ! D62   D(8,7,14,33)         -178.9347         calculate D2E/DX2 analytically  !
 ! D63   D(8,7,14,34)          -61.5516         calculate D2E/DX2 analytically  !
 ! D64   D(16,7,14,13)         -57.3665         calculate D2E/DX2 analytically  !
 ! D65   D(16,7,14,33)          65.4408         calculate D2E/DX2 analytically  !
 ! D66   D(16,7,14,34)        -177.1761         calculate D2E/DX2 analytically  !
 ! D67   D(6,7,16,11)         -172.7818         calculate D2E/DX2 analytically  !
 ! D68   D(6,7,16,37)          -52.185          calculate D2E/DX2 analytically  !
 ! D69   D(6,7,16,38)           64.4737         calculate D2E/DX2 analytically  !
 ! D70   D(8,7,16,11)          -53.5416         calculate D2E/DX2 analytically  !
 ! D71   D(8,7,16,37)           67.0552         calculate D2E/DX2 analytically  !
 ! D72   D(8,7,16,38)         -176.2861         calculate D2E/DX2 analytically  !
 ! D73   D(14,7,16,11)          64.3101         calculate D2E/DX2 analytically  !
 ! D74   D(14,7,16,37)        -175.0931         calculate D2E/DX2 analytically  !
 ! D75   D(14,7,16,38)         -58.4345         calculate D2E/DX2 analytically  !
 ! D76   D(7,8,9,10)           -57.6314         calculate D2E/DX2 analytically  !
 ! D77   D(7,8,9,15)            69.7164         calculate D2E/DX2 analytically  !
 ! D78   D(27,8,9,10)           59.3165         calculate D2E/DX2 analytically  !
 ! D79   D(27,8,9,15)         -173.3356         calculate D2E/DX2 analytically  !
 ! D80   D(28,8,9,10)         -176.5129         calculate D2E/DX2 analytically  !
 ! D81   D(28,8,9,15)          -49.1651         calculate D2E/DX2 analytically  !
 ! D82   D(8,9,10,11)           59.6132         calculate D2E/DX2 analytically  !
 ! D83   D(8,9,10,29)          -60.5784         calculate D2E/DX2 analytically  !
 ! D84   D(8,9,10,30)         -179.2219         calculate D2E/DX2 analytically  !
 ! D85   D(15,9,10,11)         -67.8558         calculate D2E/DX2 analytically  !
 ! D86   D(15,9,10,29)         171.9526         calculate D2E/DX2 analytically  !
 ! D87   D(15,9,10,30)          53.3091         calculate D2E/DX2 analytically  !
 ! D88   D(8,9,15,13)          -65.5725         calculate D2E/DX2 analytically  !
 ! D89   D(8,9,15,35)           56.0482         calculate D2E/DX2 analytically  !
 ! D90   D(8,9,15,36)          172.9896         calculate D2E/DX2 analytically  !
 ! D91   D(10,9,15,13)          60.8858         calculate D2E/DX2 analytically  !
 ! D92   D(10,9,15,35)        -177.4936         calculate D2E/DX2 analytically  !
 ! D93   D(10,9,15,36)         -60.5521         calculate D2E/DX2 analytically  !
 ! D94   D(9,10,11,12)          68.0828         calculate D2E/DX2 analytically  !
 ! D95   D(9,10,11,16)         -59.094          calculate D2E/DX2 analytically  !
 ! D96   D(29,10,11,12)       -171.648          calculate D2E/DX2 analytically  !
 ! D97   D(29,10,11,16)         61.1751         calculate D2E/DX2 analytically  !
 ! D98   D(30,10,11,12)        -53.1849         calculate D2E/DX2 analytically  !
 ! D99   D(30,10,11,16)        179.6383         calculate D2E/DX2 analytically  !
 ! D100  D(10,11,12,13)        -61.4445         calculate D2E/DX2 analytically  !
 ! D101  D(10,11,12,31)        176.2608         calculate D2E/DX2 analytically  !
 ! D102  D(10,11,12,32)         60.0755         calculate D2E/DX2 analytically  !
 ! D103  D(16,11,12,13)         64.0579         calculate D2E/DX2 analytically  !
 ! D104  D(16,11,12,31)        -58.2368         calculate D2E/DX2 analytically  !
 ! D105  D(16,11,12,32)       -174.4221         calculate D2E/DX2 analytically  !
 ! D106  D(10,11,16,7)          57.5936         calculate D2E/DX2 analytically  !
 ! D107  D(10,11,16,37)        -59.8482         calculate D2E/DX2 analytically  !
 ! D108  D(10,11,16,38)        177.081          calculate D2E/DX2 analytically  !
 ! D109  D(12,11,16,7)         -69.0448         calculate D2E/DX2 analytically  !
 ! D110  D(12,11,16,37)        173.5134         calculate D2E/DX2 analytically  !
 ! D111  D(12,11,16,38)         50.4425         calculate D2E/DX2 analytically  !
 ! D112  D(11,12,13,14)        -48.1925         calculate D2E/DX2 analytically  !
 ! D113  D(11,12,13,15)         47.2999         calculate D2E/DX2 analytically  !
 ! D114  D(31,12,13,14)         73.9834         calculate D2E/DX2 analytically  !
 ! D115  D(31,12,13,15)        169.4758         calculate D2E/DX2 analytically  !
 ! D116  D(32,12,13,14)       -169.505          calculate D2E/DX2 analytically  !
 ! D117  D(32,12,13,15)        -74.0126         calculate D2E/DX2 analytically  !
 ! D118  D(12,13,14,7)          47.7449         calculate D2E/DX2 analytically  !
 ! D119  D(12,13,14,33)        -73.7508         calculate D2E/DX2 analytically  !
 ! D120  D(12,13,14,34)        167.561          calculate D2E/DX2 analytically  !
 ! D121  D(15,13,14,7)         -48.3891         calculate D2E/DX2 analytically  !
 ! D122  D(15,13,14,33)       -169.8848         calculate D2E/DX2 analytically  !
 ! D123  D(15,13,14,34)         71.427          calculate D2E/DX2 analytically  !
 ! D124  D(12,13,15,9)         -46.9378         calculate D2E/DX2 analytically  !
 ! D125  D(12,13,15,35)       -168.782          calculate D2E/DX2 analytically  !
 ! D126  D(12,13,15,36)         74.4718         calculate D2E/DX2 analytically  !
 ! D127  D(14,13,15,9)          49.2005         calculate D2E/DX2 analytically  !
 ! D128  D(14,13,15,35)        -72.6437         calculate D2E/DX2 analytically  !
 ! D129  D(14,13,15,36)        170.6101         calculate D2E/DX2 analytically  !
 --------------------------------------------------------------------------------
 Trust Radius=3.00D-01 FncErr=1.00D-07 GrdErr=1.00D-06 EigMax=2.50D+02 EigMin=1.00D-04
 Number of steps in this run=    234 maximum allowed number of steps=    234.
 GradGradGradGradGradGradGradGradGradGradGradGradGradGradGradGradGradGrad

                          Input orientation:                          
 ---------------------------------------------------------------------
 Center     Atomic      Atomic             Coordinates (Angstroms)
 Number     Number       Type             X           Y           Z
 ---------------------------------------------------------------------
      1          8           0        4.400870   -1.246900    0.729860
      2         16           0        3.152220   -0.639060    0.250120
      3          6           0        3.434820    1.101230   -0.216370
      4          6           0        2.180910    1.776650   -0.785870
      5          6           0        1.161060    2.187810    0.301860
      6          6           0       -0.301580    2.308380   -0.149510
      7          7           0       -1.146040    1.052990   -0.063620
      8          6           0       -1.221730    0.511060    1.414270
      9          7           0       -2.189630   -0.522910    1.559880
     10          6           0       -3.521290   -0.056500    1.148800
     11          7           0       -3.545560    0.383720   -0.257530
     12          6           0       -3.359490   -0.738070   -1.198000
     13         15           0       -1.699210   -1.622770   -0.999700
     14          6           0       -0.653770   -0.051150   -0.981590
     15          6           0       -1.794810   -1.774920    0.886270
     16          6           0       -2.616630    1.441410   -0.455400
     17          8           0        2.769250   -1.289040   -1.240420
     18          8           0        1.890170   -0.725080    1.022330
     19          1           0        4.263800    1.067790   -0.939900
     20          1           0        3.801000    1.581830    0.707050
     21          1           0        1.736110    1.115760   -1.547280
     22          1           0        2.514090    2.674220   -1.335060
     23          1           0        1.447150    3.179120    0.692730
     24          1           0        1.230990    1.503620    1.160830
     25          1           0       -0.376260    2.656670   -1.195400
     26          1           0       -0.825510    3.046390    0.481490
     27          1           0       -1.487680    1.390780    2.024190
     28          1           0       -0.215190    0.146930    1.662060
     29          1           0       -3.813680    0.792920    1.789530
     30          1           0       -4.249600   -0.869570    1.284780
     31          1           0       -3.453340   -0.363310   -2.231730
     32          1           0       -4.174660   -1.464760   -1.046240
     33          1           0       -0.595660    0.370050   -1.999760
     34          1           0        0.354650   -0.331470   -0.646900
     35          1           0       -0.811320   -2.097230    1.267180
     36          1           0       -2.522130   -2.562220    1.144130
     37          1           0       -2.866860    2.300650    0.189150
     38          1           0       -2.575950    1.756530   -1.511090
     39          1           0        3.513870   -1.872100   -1.508190
 ---------------------------------------------------------------------
                    Distance matrix (angstroms):
                    1          2          3          4          5
     1  O    0.000000
     2  S    1.469267   0.000000
     3  C    2.709671   1.823756   0.000000
     4  C    4.045678   2.802209   1.533888   0.000000
     5  C    4.740969   3.458119   2.572781   1.546707   0.000000
     6  C    5.960398   4.558052   3.927132   2.617336   1.535444
     7  N    6.057005   4.629957   4.583660   3.480506   2.596941
     8  C    5.930638   4.670060   4.968978   4.245032   3.118755
     9  N    6.681900   5.501302   6.117788   5.467370   4.489737
    10  C    8.022044   6.758901   7.182722   6.294321   5.261049
    11  N    8.171879   6.794413   7.017280   5.917082   5.071482
    12  C    8.012412   6.671523   7.106987   6.098336   5.589788
    13  P    6.351664   5.105498   5.864473   5.163052   4.939203
    14  C    5.468845   4.043304   4.316261   3.378546   3.154963
    15  C    6.220106   5.115464   6.069356   5.587133   4.978145
    16  C    7.607704   6.172985   6.065716   4.820579   3.924474
    17  O    2.558508   1.670584   2.684223   3.154555   4.129575
    18  O    2.580978   1.482052   2.693646   3.100447   3.087978
    19  H    2.857390   2.359045   1.100828   2.205593   3.524686
    20  H    2.891726   2.358400   1.103526   2.211664   2.738736
    21  H    4.227112   2.883645   2.158043   1.101984   2.213435
    22  H    4.816536   3.727979   2.138576   1.103744   2.178713
    23  H    5.321230   4.204957   3.015779   2.166006   1.103323
    24  H    4.218914   3.018542   2.629727   2.183239   1.100380
    25  H    6.462620   5.039994   4.231102   2.735191   2.196581
    26  H    6.768240   5.427560   4.735089   3.501000   2.171609
    27  H    6.580856   5.366213   5.416175   4.637228   3.258451
    28  H    4.911188   3.735078   4.214470   3.793368   2.812365
    29  H    8.530100   7.276271   7.527247   6.598145   5.376515
    30  H    8.676459   7.477339   8.073897   7.255448   6.291975
    31  H    8.440401   7.061801   7.324841   6.197960   5.849785
    32  H    8.760235   7.486354   8.073238   7.139174   6.605191
    33  H    5.918671   4.486298   4.467647   3.340867   3.418738
    34  H    4.370970   2.953922   3.424242   2.792617   2.810198
    35  H    5.308361   4.343998   5.519128   5.308051   4.814945
    36  H    7.059010   6.057726   7.124400   6.683508   6.069439
    37  H    8.105392   6.698876   6.427614   5.167710   4.031076
    38  H    7.919499   6.453886   6.183452   4.811867   4.175887
    39  H    2.487270   2.177804   3.242798   3.951190   5.029400
                    6          7          8          9         10
     6  C    0.000000
     7  N    1.515419   0.000000
     8  C    2.553907   1.575937   0.000000
     9  N    3.808274   2.491645   1.423772   0.000000
    10  C    4.200571   2.888381   2.383396   1.469641   0.000000
    11  N    3.773512   2.498644   2.865539   2.442029   1.473820
    12  C    4.441959   3.064975   3.599208   3.003459   2.449120
    13  P    4.257949   2.888241   3.257064   2.828719   3.223233
    14  C    2.526614   1.517934   2.525629   3.006741   3.572291
    15  C    4.469442   3.052911   2.415142   1.475521   2.450025
    16  C    2.490916   1.570668   2.511367   2.846443   2.373942
    17  O    4.854020   4.711630   5.120123   5.746227   6.840937
    18  O    3.921589   3.682308   3.371288   4.120024   5.454071
    19  H    4.796506   5.480370   5.995257   7.101126   8.138447
    20  H    4.253555   5.034561   5.184065   6.406629   7.516329
    21  H    2.743772   3.242218   4.229097   5.267933   6.023562
    22  H    3.076908   4.200178   5.118049   6.381794   7.074758
    23  H    2.127349   3.437605   3.842146   5.261477   5.946649
    24  H    2.171037   2.711571   2.658052   3.995836   5.001828
    25  H    1.104884   2.108382   3.482648   4.581442   4.769463
    26  H    1.103323   2.091298   2.730379   3.970346   4.164188
    27  H    2.640794   2.142375   1.103014   2.090581   2.645089
    28  H    2.821545   2.159953   1.098687   2.087472   3.351883
    29  H    4.288513   3.258543   2.634098   2.102781   1.103422
    30  H    5.267202   3.891851   3.330301   2.106972   1.100004
    31  H    4.626787   3.468464   4.363247   3.999843   3.395104
    32  H    5.481009   4.059205   4.321779   3.408708   2.688548
    33  H    2.695743   2.125550   3.473823   4.001144   4.319107
    34  H    2.765293   2.123444   2.728232   3.373409   4.280544
    35  H    4.655775   3.436125   2.644475   2.112793   3.394485
    36  H    5.507004   4.052410   3.347994   2.107650   2.697587
    37  H    2.587549   2.140507   2.722132   3.210924   2.627806
    38  H    2.707618   2.152854   3.455841   3.843949   3.354961
    39  H    5.820660   5.688382   6.053605   6.615382   7.736244
                   11         12         13         14         15
    11  N    0.000000
    12  C    1.475642   0.000000
    13  P    2.825921   1.891705   0.000000
    14  C    3.012611   2.799931   1.887661   0.000000
    15  C    3.005517   2.804900   1.894511   2.786083   0.000000
    16  C    1.421538   2.419386   3.244553   2.521395   3.580537
    17  O    6.606135   6.153602   4.487366   3.649168   5.058610
    18  O    5.693386   5.699909   4.216409   3.307795   3.834026
    19  H    7.868906   7.838514   6.542184   5.043437   6.937049
    20  H    7.505853   7.764262   6.590506   5.036180   6.527862
    21  H    5.485925   5.433583   4.427281   2.719046   5.171614
    22  H    6.567101   6.794222   6.027312   4.193795   6.579952
    23  H    5.800380   6.482517   5.985152   4.201411   5.923704
    24  H    5.106990   5.626878   4.798779   3.249553   4.469863
    25  H    4.011280   4.519284   4.483537   2.730387   5.097512
    26  H    3.877452   4.854264   4.975774   3.429993   4.934412
    27  H    3.233463   4.291641   4.274358   3.436464   3.377995
    28  H    3.851267   4.341635   3.524077   2.687094   2.605870
    29  H    2.104706   3.387559   4.252804   4.286793   3.389029
    30  H    2.108347   2.640792   3.505802   4.328538   2.646595
    31  H    2.112824   1.103563   2.486184   3.081864   3.803326
    32  H    2.105875   1.102548   2.480924   3.794620   3.081311
    33  H    3.425998   3.083749   2.487825   1.103384   3.790518
    34  H    3.984312   3.776754   2.451584   1.098867   3.009042
    35  H    3.994486   3.797051   2.480364   3.044377   1.102828
    36  H    3.419155   3.084521   2.481083   3.783507   1.102419
    37  H    2.082013   3.376491   4.262628   3.435020   4.271480
    38  H    2.096703   2.633437   3.528436   2.691255   4.339200
    39  H    7.515878   6.973186   5.243752   4.578470   5.824514
                   16         17         18         19         20
    16  C    0.000000
    17  O    6.089279   0.000000
    18  O    5.214270   2.492162   0.000000
    19  H    6.907579   2.806891   3.563544   0.000000
    20  H    6.523571   3.619260   3.012060   1.786299   0.000000
    21  H    4.499399   2.635262   3.164699   2.600082   3.092409
    22  H    5.349571   3.972593   4.183516   2.407956   2.649465
    23  H    4.566415   5.044747   3.943055   3.880298   2.844670
    24  H    4.173757   3.991390   2.328262   3.714963   2.610936
    25  H    2.654000   5.046275   4.635867   4.911209   4.714244
    26  H    2.581053   5.889247   4.678826   5.642365   4.858025
    27  H    2.724969   5.996713   4.109800   6.478401   5.453576
    28  H    3.453437   4.403780   2.366896   5.261134   4.370442
    29  H    2.625486   7.539902   5.952044   8.530593   7.731591
    30  H    3.321964   7.471067   6.147075   9.010025   8.435360
    31  H    2.666917   6.368697   6.266808   7.954315   8.065076
    32  H    3.349981   6.948847   6.450447   8.810943   8.715899
    33  H    2.759924   3.827766   4.063458   5.022399   5.303381
    34  H    3.465297   2.664489   2.301973   4.162359   4.167880
    35  H    4.329942   4.445415   3.039868   6.375374   5.926443
    36  H    4.312364   5.941866   4.781036   7.973017   7.572725
    37  H    1.102884   6.833395   5.698997   7.324002   6.726461
    38  H    1.102469   6.157915   5.702879   6.898029   6.753973
    39  H    7.047748   0.982913   3.218010   3.086795   4.113315
                   21         22         23         24         25
    21  H    0.000000
    22  H    1.754733   0.000000
    23  H    3.059182   2.346320   0.000000
    24  H    2.781985   3.040743   1.753038   0.000000
    25  H    2.638244   2.893775   2.676343   3.076458   0.000000
    26  H    3.795410   3.819855   2.286312   2.659104   1.779232
    27  H    4.819114   5.380143   3.685671   2.854696   3.633661
    28  H    3.878926   4.776912   3.591260   2.045306   3.806549
    29  H    6.483725   7.303631   5.879902   5.133133   4.919271
    30  H    6.913091   8.072764   7.013941   5.973630   5.795552
    31  H    5.439348   6.755799   6.716850   6.077651   4.434262
    32  H    6.468951   7.871083   7.496291   6.550076   5.606806
    33  H    2.489573   3.927031   4.394707   3.822429   2.433878
    34  H    2.193990   3.764428   3.913107   2.720922   3.124750
    35  H    4.973318   6.371557   5.768063   4.141070   5.371512
    36  H    6.237294   7.676601   6.994421   5.533285   6.108598
    37  H    5.060285   5.605122   4.431251   4.286233   2.871727
    38  H    4.359559   5.175099   4.802699   4.657887   2.397613
    39  H    3.476962   4.658171   5.884743   4.871416   5.978353
                   26         27         28         29         30
    26  H    0.000000
    27  H    2.357846   0.000000
    28  H    3.189530   1.815911   0.000000
    29  H    3.964626   2.413043   3.658235   0.000000
    30  H    5.263498   3.644737   4.177568   1.791277   0.000000
    31  H    5.088527   5.005348   5.089947   4.199672   3.640903
    32  H    5.822477   4.980112   5.060616   3.642666   2.406973
    33  H    3.656806   4.246147   3.688288   4.989308   5.067163
    34  H    3.751797   3.673560   2.425877   4.957360   5.021958
    35  H    5.203301   3.632732   2.355325   4.199998   3.650922
    36  H    5.896958   4.179809   3.595792   3.652616   2.422602
    37  H    2.192875   2.469286   3.720125   2.393937   3.628039
    38  H    2.949263   3.717030   4.269998   3.654396   4.185020
    39  H    6.854239   6.938270   5.294606   8.465830   8.311270
                   31         32         33         34         35
    31  H    0.000000
    32  H    1.771689   0.000000
    33  H    2.959385   4.133397   0.000000
    34  H    4.124741   4.685986   1.795954   0.000000
    35  H    4.714777   4.130858   4.099619   2.853261   0.000000
    36  H    4.135068   2.955164   4.711002   4.057080   1.777140
    37  H    3.647095   4.173109   3.698228   4.243249   4.972800
    38  H    2.404757   3.626109   2.466308   3.700674   5.067955
    39  H    7.165331   7.713159   4.707134   3.618844   5.143990
                   36         37         38         39
    36  H    0.000000
    37  H    4.967729   0.000000
    38  H    5.069979   1.808732   0.000000
    39  H    6.629054   7.810667   7.088926   0.000000
 Stoichiometry    C10H21N3O3PS(1+)
 Framework group  C1[X(C10H21N3O3PS)]
 Deg. of freedom   111
 Full point group                 C1      NOp   1
 Largest Abelian subgroup         C1      NOp   1
 Largest concise Abelian subgroup C1      NOp   1
                         Standard orientation:                         
 ---------------------------------------------------------------------
 Center     Atomic      Atomic             Coordinates (Angstroms)
 Number     Number       Type             X           Y           Z
 ---------------------------------------------------------------------
      1          8           0        4.400871   -1.246900    0.729860
      2         16           0        3.152221   -0.639060    0.250120
      3          6           0        3.434821    1.101230   -0.216370
      4          6           0        2.180911    1.776650   -0.785870
      5          6           0        1.161061    2.187810    0.301860
      6          6           0       -0.301579    2.308380   -0.149510
      7          7           0       -1.146039    1.052990   -0.063620
      8          6           0       -1.221729    0.511060    1.414270
      9          7           0       -2.189629   -0.522909    1.559880
     10          6           0       -3.521289   -0.056499    1.148800
     11          7           0       -3.545559    0.383721   -0.257530
     12          6           0       -3.359489   -0.738069   -1.198000
     13         15           0       -1.699209   -1.622769   -0.999700
     14          6           0       -0.653769   -0.051150   -0.981590
     15          6           0       -1.794809   -1.774919    0.886270
     16          6           0       -2.616629    1.441411   -0.455400
     17          8           0        2.769251   -1.289040   -1.240420
     18          8           0        1.890171   -0.725080    1.022330
     19          1           0        4.263801    1.067790   -0.939900
     20          1           0        3.801001    1.581830    0.707050
     21          1           0        1.736111    1.115760   -1.547280
     22          1           0        2.514091    2.674220   -1.335060
     23          1           0        1.447151    3.179120    0.692730
     24          1           0        1.230991    1.503620    1.160830
     25          1           0       -0.376259    2.656670   -1.195400
     26          1           0       -0.825509    3.046390    0.481490
     27          1           0       -1.487679    1.390781    2.024190
     28          1           0       -0.215189    0.146930    1.662060
     29          1           0       -3.813679    0.792921    1.789530
     30          1           0       -4.249599   -0.869569    1.284780
     31          1           0       -3.453339   -0.363309   -2.231730
     32          1           0       -4.174659   -1.464759   -1.046240
     33          1           0       -0.595659    0.370050   -1.999760
     34          1           0        0.354651   -0.331470   -0.646900
     35          1           0       -0.811319   -2.097230    1.267180
     36          1           0       -2.522129   -2.562219    1.144130
     37          1           0       -2.866859    2.300651    0.189150
     38          1           0       -2.575949    1.756531   -1.511090
     39          1           0        3.513871   -1.872100   -1.508190
 ---------------------------------------------------------------------
 Rotational constants (GHZ):           0.6848990           0.2301969           0.2071111
 Standard basis: 6-31+G(d,p) (6D, 7F)
 There are   455 symmetry adapted cartesian basis functions of A   symmetry.
 There are   455 symmetry adapted basis functions of A   symmetry.
   455 basis functions,   771 primitive gaussians,   455 cartesian basis functions
    78 alpha electrons       78 beta electrons
       nuclear repulsion energy      1880.9555729791 Hartrees.
 NAtoms=   39 NActive=   39 NUniq=   39 SFac= 1.00D+00 NAtFMM=   60 NAOKFM=F Big=F
 Integral buffers will be    131072 words long.
 Raffenetti 2 integral format.
 Two-electron integral symmetry is turned on.
 Nuclear repulsion after empirical dispersion term =     1880.8976429407 Hartrees.
 Standard density basis: Auto (5D, 7F)
  2133 Density fitting functions
 There are  2133 symmetry adapted density basis functions of A   symmetry.
 One-electron integrals computed using PRISM.
 NBasis=   455 RedAO= T EigKep=  9.30D-06  NBF=   455
 NBsUse=   455 1.00D-06 EigRej= -1.00D+00 NBFU=   455
 NBasis=      455 NBas6D=      455 NTT=      103740   NTT6D=   103740
 NDBShl=      349 NDBF=       2133 NDBF6D=     2482  NNucDB=        0
 IDenFi=        2 ISolve=        0 FullAP=F BlkAPC=T NucTyp=        0
 TolInv= 1.00D-06 TolIt=  1.00D-10 IR12=0.
 FoFCou: FMM=F IPFlag=           0 FMFlag=           0 FMFlg1=           0
         NFxFlg=           0 DoJE=F BraDBF=T KetDBF=T FulRan=T
         wScrn=  0.000000 ICntrl=       600 IOpCl=  3 I1Cent=           6 NGrid=           0
         NMat0=    1 NMatS0=   2482 NMatT0=    0 NMatD0=    1 NMtDS0=    0 NMtDT0=    0
 Petite list used in FoFCou.
 DBF EigKep=  1.26D-06 EigRej=  9.88D-07
 NDBF=   2133  NBFD=  2133
 NRank=  2101 NBFDU=  2101
 S*AI*S=  12.5243947268    
 ExpMin= 3.48D-02 ExpMax= 2.19D+04 ExpMxC= 3.30D+03 IAcc=3 IRadAn=         5 AccDes= 0.00D+00
 Harris functional with IExCor= 1009 and IRadAn=       5 diagonalized for initial guess.
 HarFok:  IExCor= 1009 AccDes= 0.00D+00 IRadAn=         5 IDoV= 1 UseB2=F ITyADJ=14
 ICtDFT=  3500011 ScaDFX=  1.000000  1.000000  1.000000  1.000000
 FoFCou: FMM=F IPFlag=           0 FMFlag=      100000 FMFlg1=           0
         NFxFlg=           0 DoJE=T BraDBF=F KetDBF=T FulRan=T
         wScrn=  0.000000 ICntrl=       500 IOpCl=  0 I1Cent=   200000004 NGrid=           0
         NMat0=    1 NMatS0=      1 NMatT0=    0 NMatD0=    1 NMtDS0=    0 NMtDT0=    0
 Petite list used in FoFCou.
 Requested convergence on RMS density matrix=1.00D-08 within 128 cycles.
 Requested convergence on MAX density matrix=1.00D-06.
 Requested convergence on             energy=1.00D-06.
 No special actions if energy rises.
 FoFCou: FMM=F IPFlag=           0 FMFlag=      100000 FMFlg1=           0
         NFxFlg=           0 DoJE=T BraDBF=T KetDBF=F FulRan=T
         wScrn=  0.000000 ICntrl=       500 IOpCl=  0 I1Cent=           5 NGrid=           0
         NMat0=    1 NMatS0=      1 NMatT0=    0 NMatD0=    1 NMtDS0=    0 NMtDT0=    0
 Symmetry not used in FoFCou.
 Initial convergence to 1.0D-05 achieved.  Increase integral accuracy.
 SCF Done:  E(RPBE-PBE) =  -1521.69410610     A.U. after   17 cycles
            NFock= 17  Conv=0.53D-08     -V/T= 2.0069
 DoSCS=F DFT=T ScalE2(SS,OS)=  1.000000  1.000000
 Range of M.O.s used for correlation:     1   455
 NBasis=   455 NAE=    78 NBE=    78 NFC=     0 NFV=     0
 NROrb=    455 NOA=    78 NOB=    78 NVA=   377 NVB=   377

 **** Warning!!: The largest alpha MO coefficient is  0.70340124D+02

 Symmetrizing basis deriv contribution to polar:
 IMax=3 JMax=2 DiffMx= 0.00D+00
 G2DrvN: will do    40 centers at a time, making    1 passes.
 Calling FoFCou, ICntrl=  3507 FMM=F I1Cent=   4 AccDes= 0.00D+00.
 G2DrvN: will do    40 centers at a time, making    1 passes.
 Calling FoFCou, ICntrl=  3507 FMM=F I1Cent=1004 AccDes= 0.00D+00.
 End of G2Drv F.D. properties file   721 does not exist.
 End of G2Drv F.D. properties file   722 does not exist.
 End of G2Drv F.D. properties file   788 does not exist.
          IDoAtm=111111111111111111111111111111111111111
          Differentiating once with respect to nuclear coordinates.
 FoFCou: FMM=F IPFlag=           0 FMFlag=      100000 FMFlg1=           0
         NFxFlg=           0 DoJE=F BraDBF=T KetDBF=F FulRan=T
         wScrn=  0.000000 ICntrl=       500 IOpCl=  0 I1Cent=           5 NGrid=           0
         NMat0=  120 NMatS0=    120 NMatT0=    0 NMatD0=  120 NMtDS0=    0 NMtDT0=    0
 Integrals replicated using symmetry in FoFCou.
          There are   120 degrees of freedom in the 1st order CPHF.  IDoFFX=6 NUNeed=     0.
    114 vectors produced by pass  0 Test12= 2.94D-14 1.00D-09 XBig12= 2.54D-01 7.25D-02.
 AX will form   114 AO Fock derivatives at one time.
    114 vectors produced by pass  1 Test12= 2.94D-14 1.00D-09 XBig12= 2.41D-01 9.18D-02.
    114 vectors produced by pass  2 Test12= 2.94D-14 1.00D-09 XBig12= 2.74D-03 4.57D-03.
    114 vectors produced by pass  3 Test12= 2.94D-14 1.00D-09 XBig12= 6.60D-06 1.37D-04.
    110 vectors produced by pass  4 Test12= 2.94D-14 1.00D-09 XBig12= 2.34D-09 2.23D-06.
     33 vectors produced by pass  5 Test12= 2.94D-14 1.00D-09 XBig12= 4.65D-13 4.52D-08.
      1 vectors produced by pass  6 Test12= 2.94D-14 1.00D-09 XBig12= 8.07D-17 1.23D-09.
 InvSVY:  IOpt=1 It=  1 EMax= 6.11D-16
 Solved reduced A of dimension   600 with   120 vectors.
 End of Minotr F.D. properties file   721 does not exist.
 End of Minotr F.D. properties file   722 does not exist.
 End of Minotr F.D. properties file   788 does not exist.

 **********************************************************************

            Population analysis using the SCF Density.

 **********************************************************************

 Orbital symmetries:
       Occupied  (A) (A) (A) (A) (A) (A) (A) (A) (A) (A) (A) (A)
                 (A) (A) (A) (A) (A) (A) (A) (A) (A) (A) (A) (A)
                 (A) (A) (A) (A) (A) (A) (A) (A) (A) (A) (A) (A)
                 (A) (A) (A) (A) (A) (A) (A) (A) (A) (A) (A) (A)
                 (A) (A) (A) (A) (A) (A) (A) (A) (A) (A) (A) (A)
                 (A) (A) (A) (A) (A) (A) (A) (A) (A) (A) (A) (A)
                 (A) (A) (A) (A) (A) (A)
       Virtual   (A) (A) (A) (A) (A) (A) (A) (A) (A) (A) (A) (A)
                 (A) (A) (A) (A) (A) (A) (A) (A) (A) (A) (A) (A)
                 (A) (A) (A) (A) (A) (A) (A) (A) (A) (A) (A) (A)
                 (A) (A) (A) (A) (A) (A) (A) (A) (A) (A) (A) (A)
                 (A) (A) (A) (A) (A) (A) (A) (A) (A) (A) (A) (A)
                 (A) (A) (A) (A) (A) (A) (A) (A) (A) (A) (A) (A)
                 (A) (A) (A) (A) (A) (A) (A) (A) (A) (A) (A) (A)
                 (A) (A) (A) (A) (A) (A) (A) (A) (A) (A) (A) (A)
                 (A) (A) (A) (A) (A) (A) (A) (A) (A) (A) (A) (A)
                 (A) (A) (A) (A) (A) (A) (A) (A) (A) (A) (A) (A)
                 (A) (A) (A) (A) (A) (A) (A) (A) (A) (A) (A) (A)
                 (A) (A) (A) (A) (A) (A) (A) (A) (A) (A) (A) (A)
                 (A) (A) (A) (A) (A) (A) (A) (A) (A) (A) (A) (A)
                 (A) (A) (A) (A) (A) (A) (A) (A) (A) (A) (A) (A)
                 (A) (A) (A) (A) (A) (A) (A) (A) (A) (A) (A) (A)
                 (A) (A) (A) (A) (A) (A) (A) (A) (A) (A) (A) (A)
                 (A) (A) (A) (A) (A) (A) (A) (A) (A) (A) (A) (A)
                 (A) (A) (A) (A) (A) (A) (A) (A) (A) (A) (A) (A)
                 (A) (A) (A) (A) (A) (A) (A) (A) (A) (A) (A) (A)
                 (A) (A) (A) (A) (A) (A) (A) (A) (A) (A) (A) (A)
                 (A) (A) (A) (A) (A) (A) (A) (A) (A) (A) (A) (A)
                 (A) (A) (A) (A) (A) (A) (A) (A) (A) (A) (A) (A)
                 (A) (A) (A) (A) (A) (A) (A) (A) (A) (A) (A) (A)
                 (A) (A) (A) (A) (A) (A) (A) (A) (A) (A) (A) (A)
                 (A) (A) (A) (A) (A) (A) (A) (A) (A) (A) (A) (A)
                 (A) (A) (A) (A) (A) (A) (A) (A) (A) (A) (A) (A)
                 (A) (A) (A) (A) (A) (A) (A) (A) (A) (A) (A) (A)
                 (A) (A) (A) (A) (A) (A) (A) (A) (A) (A) (A) (A)
                 (A) (A) (A) (A) (A) (A) (A) (A) (A) (A) (A) (A)
                 (A) (A) (A) (A) (A) (A) (A) (A) (A) (A) (A) (A)
                 (A) (A) (A) (A) (A) (A) (A) (A) (A) (A) (A) (A)
                 (A) (A) (A) (A) (A)
 The electronic state is 1-A.
 Alpha  occ. eigenvalues --  -88.43234 -76.46222 -18.95569 -18.91591 -18.91338
 Alpha  occ. eigenvalues --  -14.26592 -14.17138 -14.16908 -10.12639 -10.11987
 Alpha  occ. eigenvalues --  -10.10588 -10.09744 -10.09271 -10.07769 -10.07325
 Alpha  occ. eigenvalues --  -10.07004 -10.05718 -10.05695  -8.00546  -6.44547
 Alpha  occ. eigenvalues --   -6.02964  -6.02759  -6.02558  -4.66438  -4.66298
 Alpha  occ. eigenvalues --   -4.65847  -1.17142  -1.08461  -1.07065  -1.05353
 Alpha  occ. eigenvalues --   -1.01441  -0.98166  -0.88659  -0.84883  -0.83957
 Alpha  occ. eigenvalues --   -0.80046  -0.79780  -0.78135  -0.73767  -0.72962
 Alpha  occ. eigenvalues --   -0.70499  -0.70105  -0.68334  -0.64825  -0.61451
 Alpha  occ. eigenvalues --   -0.60883  -0.59886  -0.59616  -0.59102  -0.58794
 Alpha  occ. eigenvalues --   -0.58173  -0.56403  -0.55776  -0.54971  -0.54050
 Alpha  occ. eigenvalues --   -0.53183  -0.52807  -0.51443  -0.50479  -0.49860
 Alpha  occ. eigenvalues --   -0.49320  -0.48946  -0.48491  -0.47519  -0.47155
 Alpha  occ. eigenvalues --   -0.46133  -0.45945  -0.45414  -0.45065  -0.44526
 Alpha  occ. eigenvalues --   -0.44048  -0.41953  -0.40423  -0.39743  -0.39373
 Alpha  occ. eigenvalues --   -0.38979  -0.33155  -0.32447
 Alpha virt. eigenvalues --   -0.15115  -0.14618  -0.14034  -0.13237  -0.12676
 Alpha virt. eigenvalues --   -0.12439  -0.11959  -0.11796  -0.10591  -0.10270
 Alpha virt. eigenvalues --   -0.10086  -0.09883  -0.09131  -0.08665  -0.08481
 Alpha virt. eigenvalues --   -0.08181  -0.07892  -0.07457  -0.07009  -0.06639
 Alpha virt. eigenvalues --   -0.06401  -0.05765  -0.05388  -0.04797  -0.04428
 Alpha virt. eigenvalues --   -0.04078  -0.03974  -0.03626  -0.03068  -0.02903
 Alpha virt. eigenvalues --   -0.02466  -0.02300  -0.01578  -0.01387  -0.01048
 Alpha virt. eigenvalues --   -0.00664  -0.00232   0.00347   0.00497   0.00658
 Alpha virt. eigenvalues --    0.00982   0.01120   0.01895   0.01975   0.02135
 Alpha virt. eigenvalues --    0.02676   0.03292   0.03428   0.03559   0.04393
 Alpha virt. eigenvalues --    0.04498   0.04669   0.04984   0.05339   0.05531
 Alpha virt. eigenvalues --    0.05913   0.06252   0.06455   0.06733   0.06994
 Alpha virt. eigenvalues --    0.07427   0.07601   0.07807   0.08109   0.08817
 Alpha virt. eigenvalues --    0.09092   0.09513   0.09742   0.09964   0.10589
 Alpha virt. eigenvalues --    0.10972   0.11607   0.11801   0.12299   0.12470
 Alpha virt. eigenvalues --    0.12845   0.13184   0.13692   0.14129   0.14500
 Alpha virt. eigenvalues --    0.14964   0.15568   0.15838   0.15951   0.16272
 Alpha virt. eigenvalues --    0.16697   0.17027   0.17248   0.17556   0.18296
 Alpha virt. eigenvalues --    0.18685   0.19012   0.19262   0.19927   0.20333
 Alpha virt. eigenvalues --    0.20826   0.21388   0.21796   0.22359   0.22698
 Alpha virt. eigenvalues --    0.23395   0.23885   0.24761   0.25213   0.26477
 Alpha virt. eigenvalues --    0.27726   0.27881   0.28283   0.30203   0.30611
 Alpha virt. eigenvalues --    0.31339   0.31645   0.35024   0.35454   0.36498
 Alpha virt. eigenvalues --    0.38046   0.38297   0.40617   0.40964   0.41369
 Alpha virt. eigenvalues --    0.42535   0.44214   0.45485   0.46858   0.48170
 Alpha virt. eigenvalues --    0.49943   0.50810   0.51156   0.53194   0.53853
 Alpha virt. eigenvalues --    0.55140   0.56435   0.57292   0.59249   0.59427
 Alpha virt. eigenvalues --    0.59987   0.60761   0.61320   0.62913   0.64188
 Alpha virt. eigenvalues --    0.64966   0.65223   0.67074   0.68727   0.70305
 Alpha virt. eigenvalues --    0.70952   0.71326   0.72225   0.72491   0.72772
 Alpha virt. eigenvalues --    0.73918   0.74538   0.75463   0.76230   0.76885
 Alpha virt. eigenvalues --    0.76983   0.77504   0.78030   0.78660   0.79274
 Alpha virt. eigenvalues --    0.80085   0.80448   0.81125   0.81907   0.82715
 Alpha virt. eigenvalues --    0.83220   0.84672   0.85251   0.86191   0.87220
 Alpha virt. eigenvalues --    0.88849   0.89351   0.90472   0.90808   0.92837
 Alpha virt. eigenvalues --    0.93120   0.93964   0.94981   0.95788   0.96249
 Alpha virt. eigenvalues --    0.97086   0.97848   0.98984   0.99461   1.00119
 Alpha virt. eigenvalues --    1.01711   1.02906   1.05340   1.05953   1.06696
 Alpha virt. eigenvalues --    1.07742   1.08589   1.08885   1.10175   1.10948
 Alpha virt. eigenvalues --    1.11746   1.12800   1.13981   1.15297   1.16365
 Alpha virt. eigenvalues --    1.17337   1.18175   1.20780   1.21848   1.22686
 Alpha virt. eigenvalues --    1.24501   1.25480   1.27827   1.28591   1.30576
 Alpha virt. eigenvalues --    1.31645   1.35305   1.36026   1.36684   1.37866
 Alpha virt. eigenvalues --    1.39461   1.40894   1.42725   1.44716   1.46615
 Alpha virt. eigenvalues --    1.47124   1.49071   1.50413   1.53594   1.54798
 Alpha virt. eigenvalues --    1.56262   1.56865   1.57383   1.58861   1.60363
 Alpha virt. eigenvalues --    1.61056   1.61328   1.61684   1.62325   1.65050
 Alpha virt. eigenvalues --    1.65305   1.66073   1.67751   1.68153   1.68745
 Alpha virt. eigenvalues --    1.69510   1.70419   1.71568   1.71942   1.73709
 Alpha virt. eigenvalues --    1.74144   1.74917   1.76016   1.77463   1.78049
 Alpha virt. eigenvalues --    1.79809   1.80394   1.82626   1.82699   1.83622
 Alpha virt. eigenvalues --    1.84947   1.85302   1.86220   1.86789   1.88589
 Alpha virt. eigenvalues --    1.89345   1.90149   1.92218   1.92746   1.93251
 Alpha virt. eigenvalues --    1.94075   1.94404   1.95409   1.96388   1.97391
 Alpha virt. eigenvalues --    1.98268   1.99032   2.01055   2.02185   2.04351
 Alpha virt. eigenvalues --    2.04751   2.05497   2.07480   2.08917   2.09153
 Alpha virt. eigenvalues --    2.10246   2.11977   2.13447   2.15452   2.16061
 Alpha virt. eigenvalues --    2.17942   2.19867   2.22458   2.22665   2.23108
 Alpha virt. eigenvalues --    2.25410   2.25643   2.26898   2.27065   2.28113
 Alpha virt. eigenvalues --    2.29011   2.29790   2.31620   2.35272   2.37934
 Alpha virt. eigenvalues --    2.38630   2.39095   2.40229   2.40864   2.41319
 Alpha virt. eigenvalues --    2.41979   2.43413   2.45565   2.45911   2.47514
 Alpha virt. eigenvalues --    2.48927   2.49218   2.51797   2.53084   2.53688
 Alpha virt. eigenvalues --    2.55314   2.55607   2.55937   2.58100   2.59168
 Alpha virt. eigenvalues --    2.61478   2.62357   2.64423   2.64718   2.65412
 Alpha virt. eigenvalues --    2.66582   2.67622   2.68796   2.70554   2.71284
 Alpha virt. eigenvalues --    2.73086   2.74004   2.75346   2.75993   2.78741
 Alpha virt. eigenvalues --    2.80070   2.81462   2.82681   3.07021   3.08232
 Alpha virt. eigenvalues --    3.09159   3.09389   3.10004   3.11576   3.11840
 Alpha virt. eigenvalues --    3.14090   3.16020   3.17851   3.21665   3.23462
 Alpha virt. eigenvalues --    3.24720   3.25385   3.26297   3.29162   3.30670
 Alpha virt. eigenvalues --    3.31154   3.31570   3.34007   3.36660   3.39231
 Alpha virt. eigenvalues --    3.80971   3.96135   4.01699   4.06066   4.14038
 Alpha virt. eigenvalues --    4.17227   4.20389   4.25276   4.35216   4.40457
 Alpha virt. eigenvalues --    4.45052   4.46694   4.48567   4.51186   4.54102
 Alpha virt. eigenvalues --    4.55973   4.62193
          Condensed to atoms (all electrons):
               1          2          3          4          5          6
     1  O    8.656208   0.007398  -0.021829   0.005881   0.008867  -0.004070
     2  S    0.007398  14.748341   0.078201   0.063581  -0.081678  -0.006872
     3  C   -0.021829   0.078201   7.279336  -0.546887   0.066791  -0.360320
     4  C    0.005881   0.063581  -0.546887   6.181432  -0.243504  -0.241902
     5  C    0.008867  -0.081678   0.066791  -0.243504   7.207939  -1.193909
     6  C   -0.004070  -0.006872  -0.360320  -0.241902  -1.193909   9.202276
     7  N    0.002431   0.016230   0.040876   0.091333   0.030565  -0.468743
     8  C   -0.004339  -0.027560   0.019080   0.159533  -0.304801  -0.722939
     9  N    0.000113   0.000101  -0.007592  -0.042922   0.048907   0.224810
    10  C    0.000017  -0.001735  -0.004818   0.003512  -0.039879   0.004184
    11  N   -0.000018   0.002024  -0.003288  -0.007462  -0.025795   0.133133
    12  C   -0.000107   0.006198  -0.003065   0.002768   0.036803  -0.041213
    13  P    0.002865  -0.048954  -0.018751  -0.078060  -0.033070   0.228166
    14  C    0.006904  -0.008423   0.050479   0.092641   0.257684  -0.931087
    15  C    0.000116   0.005884   0.011599  -0.000075   0.018746  -0.112817
    16  C    0.000891  -0.006833   0.012095   0.021750  -0.012483  -0.385652
    17  O   -0.053007  -0.126396  -0.138776   0.035362  -0.012573   0.030094
    18  O   -0.132549   0.127744  -0.420401   0.107619   0.023726   0.002834
    19  H   -0.004352  -0.023972   0.334840  -0.025941   0.025728  -0.006154
    20  H   -0.003228  -0.019111   0.359826  -0.070270   0.024613   0.005807
    21  H    0.000280  -0.008959  -0.058161   0.404245  -0.065434   0.015891
    22  H   -0.000552   0.007156   0.003522   0.360330  -0.049346   0.012368
    23  H    0.000099  -0.000134   0.002826  -0.030275   0.386132  -0.040382
    24  H   -0.000826   0.000579   0.017010  -0.059638   0.413449  -0.045625
    25  H   -0.000000  -0.001141   0.005431  -0.003791  -0.068653   0.446825
    26  H   -0.000000  -0.000272  -0.003171   0.005078   0.004481   0.389310
    27  H    0.000002  -0.000624  -0.000367  -0.001753   0.006213  -0.025825
    28  H    0.000005   0.002120   0.001611   0.004348  -0.017023  -0.012558
    29  H    0.000000  -0.000025  -0.000021  -0.000132  -0.001172   0.003350
    30  H    0.000000  -0.000015   0.000008   0.000011  -0.000020   0.000144
    31  H    0.000000   0.000038  -0.000010   0.000474  -0.000864  -0.004882
    32  H    0.000000  -0.000028   0.000007   0.000060  -0.000824   0.000893
    33  H    0.000002   0.000698   0.003286   0.011030  -0.034126  -0.042011
    34  H    0.000249   0.012700   0.004783  -0.019671   0.059205  -0.093368
    35  H   -0.000009   0.000506   0.000310  -0.000240   0.000588  -0.003318
    36  H   -0.000000   0.000186  -0.000019   0.000136   0.000042   0.001850
    37  H    0.000000  -0.000017  -0.000212   0.001571  -0.002744  -0.016178
    38  H   -0.000000   0.000205   0.000398   0.003073   0.001190  -0.019479
    39  H   -0.008212   0.079460  -0.018431   0.000950   0.000458  -0.001816
               7          8          9         10         11         12
     1  O    0.002431  -0.004339   0.000113   0.000017  -0.000018  -0.000107
     2  S    0.016230  -0.027560   0.000101  -0.001735   0.002024   0.006198
     3  C    0.040876   0.019080  -0.007592  -0.004818  -0.003288  -0.003065
     4  C    0.091333   0.159533  -0.042922   0.003512  -0.007462   0.002768
     5  C    0.030565  -0.304801   0.048907  -0.039879  -0.025795   0.036803
     6  C   -0.468743  -0.722939   0.224810   0.004184   0.133133  -0.041213
     7  N    8.894686  -0.471246   0.096926  -0.008298  -0.063667   0.050474
     8  C   -0.471246   8.147279  -0.249461  -0.348590  -0.061373   0.097445
     9  N    0.096926  -0.249461   7.240179   0.155631  -0.156968  -0.012600
    10  C   -0.008298  -0.348590   0.155631   5.966363   0.116359  -0.250418
    11  N   -0.063667  -0.061373  -0.156968   0.116359   7.156830   0.043723
    12  C    0.050474   0.097445  -0.012600  -0.250418   0.043723   6.549532
    13  P    0.222167  -0.441664   0.349923  -0.027654   0.138881  -0.505245
    14  C   -0.446573  -0.114506  -0.311700   0.274162  -0.180668   0.056857
    15  C    0.012503  -0.158595  -0.035631  -0.245074  -0.030205   0.054745
    16  C   -0.191011   0.088247  -0.101100  -0.274477   0.218659  -0.283836
    17  O    0.005563   0.003648   0.000074  -0.000658   0.000216   0.000886
    18  O    0.031393  -0.040898   0.012023   0.000900   0.001280  -0.003020
    19  H   -0.000062  -0.000298   0.000014   0.000008  -0.000000  -0.000000
    20  H    0.000963  -0.000184   0.000003  -0.000014   0.000004  -0.000009
    21  H    0.005645   0.003827  -0.000051  -0.000488   0.000355  -0.000202
    22  H   -0.000923  -0.000370   0.000021  -0.000023  -0.000018   0.000105
    23  H   -0.002298   0.015418  -0.000491  -0.000202   0.000052  -0.000105
    24  H    0.001632   0.012025  -0.001191  -0.003843  -0.000501  -0.000005
    25  H   -0.037560   0.030263  -0.001154  -0.005214  -0.001857   0.000732
    26  H   -0.036958  -0.065621   0.002310   0.012641  -0.000268  -0.001437
    27  H   -0.016617   0.385696  -0.037639   0.008200   0.000049   0.005673
    28  H   -0.033497   0.482788  -0.067247  -0.004641  -0.003236   0.002088
    29  H    0.024268  -0.025797  -0.054678   0.434001  -0.063058   0.009819
    30  H   -0.010353   0.004627  -0.053624   0.450424  -0.052187  -0.013060
    31  H   -0.009465   0.006101  -0.006071   0.007948  -0.046974   0.365806
    32  H   -0.003875   0.009869  -0.001619  -0.001471  -0.054558   0.390753
    33  H   -0.023934   0.019618  -0.002248   0.000474  -0.000964  -0.002815
    34  H   -0.053414  -0.014628  -0.002611  -0.001657   0.000937   0.017114
    35  H   -0.008030   0.002936  -0.047539   0.007453  -0.003704   0.017745
    36  H   -0.005400   0.015441  -0.059015   0.002759   0.000500  -0.002586
    37  H   -0.028446  -0.047935   0.002207  -0.006045  -0.050992  -0.004100
    38  H   -0.042470   0.029966  -0.006290  -0.000315  -0.047808  -0.009015
    39  H   -0.000082  -0.000450   0.000031  -0.000002   0.000001  -0.000025
              13         14         15         16         17         18
     1  O    0.002865   0.006904   0.000116   0.000891  -0.053007  -0.132549
     2  S   -0.048954  -0.008423   0.005884  -0.006833  -0.126396   0.127744
     3  C   -0.018751   0.050479   0.011599   0.012095  -0.138776  -0.420401
     4  C   -0.078060   0.092641  -0.000075   0.021750   0.035362   0.107619
     5  C   -0.033070   0.257684   0.018746  -0.012483  -0.012573   0.023726
     6  C    0.228166  -0.931087  -0.112817  -0.385652   0.030094   0.002834
     7  N    0.222167  -0.446573   0.012503  -0.191011   0.005563   0.031393
     8  C   -0.441664  -0.114506  -0.158595   0.088247   0.003648  -0.040898
     9  N    0.349923  -0.311700  -0.035631  -0.101100   0.000074   0.012023
    10  C   -0.027654   0.274162  -0.245074  -0.274477  -0.000658   0.000900
    11  N    0.138881  -0.180668  -0.030205   0.218659   0.000216   0.001280
    12  C   -0.505245   0.056857   0.054745  -0.283836   0.000886  -0.003020
    13  P   16.190800  -1.079078  -0.293538  -0.135433  -0.004795   0.031157
    14  C   -1.079078   8.338466   0.021723  -0.151768  -0.015778  -0.070810
    15  C   -0.293538   0.021723   6.354399   0.135740   0.003290  -0.003816
    16  C   -0.135433  -0.151768   0.135740   6.406773  -0.000211   0.000249
    17  O   -0.004795  -0.015778   0.003290  -0.000211   8.742721  -0.091450
    18  O    0.031157  -0.070810  -0.003816   0.000249  -0.091450   8.930363
    19  H    0.000074   0.002255   0.000021   0.000036  -0.001836   0.012624
    20  H    0.000347  -0.001534  -0.000112  -0.000007   0.009449  -0.001816
    21  H    0.007553   0.000706  -0.001611  -0.002004   0.014515  -0.006599
    22  H   -0.001144  -0.003600   0.000101   0.001041  -0.000617  -0.000912
    23  H    0.001139  -0.003902  -0.000159  -0.003068   0.000128   0.000354
    24  H   -0.002382  -0.033330   0.002378   0.006676   0.000077   0.001997
    25  H    0.003984  -0.062267   0.000559  -0.000904   0.000074   0.000199
    26  H    0.001613   0.039897  -0.001624  -0.031091  -0.000023   0.000342
    27  H    0.014804   0.036816  -0.010731  -0.050806  -0.000007   0.000375
    28  H   -0.029534  -0.029948  -0.001175   0.024188   0.000020  -0.004842
    29  H    0.011897  -0.012301   0.003310  -0.012721  -0.000000   0.000012
    30  H   -0.010603   0.011458  -0.012583   0.006420  -0.000000   0.000003
    31  H   -0.060158   0.027920   0.016448  -0.001874   0.000005   0.000001
    32  H   -0.048985   0.011147  -0.002593   0.004715  -0.000000  -0.000001
    33  H   -0.032156   0.406871   0.019566  -0.018067   0.000685   0.001029
    34  H   -0.032244   0.455817  -0.016469   0.009016  -0.001689  -0.003001
    35  H   -0.069412   0.023337   0.381781  -0.003113  -0.000244  -0.000349
    36  H   -0.086573   0.024041   0.408095   0.004606  -0.000008  -0.000067
    37  H    0.004400   0.021055   0.002959   0.437764   0.000000   0.000020
    38  H   -0.024895  -0.023954   0.007210   0.444154   0.000009   0.000029
    39  H    0.000489  -0.000592  -0.000077  -0.000043   0.183121   0.004077
              19         20         21         22         23         24
     1  O   -0.004352  -0.003228   0.000280  -0.000552   0.000099  -0.000826
     2  S   -0.023972  -0.019111  -0.008959   0.007156  -0.000134   0.000579
     3  C    0.334840   0.359826  -0.058161   0.003522   0.002826   0.017010
     4  C   -0.025941  -0.070270   0.404245   0.360330  -0.030275  -0.059638
     5  C    0.025728   0.024613  -0.065434  -0.049346   0.386132   0.413449
     6  C   -0.006154   0.005807   0.015891   0.012368  -0.040382  -0.045625
     7  N   -0.000062   0.000963   0.005645  -0.000923  -0.002298   0.001632
     8  C   -0.000298  -0.000184   0.003827  -0.000370   0.015418   0.012025
     9  N    0.000014   0.000003  -0.000051   0.000021  -0.000491  -0.001191
    10  C    0.000008  -0.000014  -0.000488  -0.000023  -0.000202  -0.003843
    11  N   -0.000000   0.000004   0.000355  -0.000018   0.000052  -0.000501
    12  C   -0.000000  -0.000009  -0.000202   0.000105  -0.000105  -0.000005
    13  P    0.000074   0.000347   0.007553  -0.001144   0.001139  -0.002382
    14  C    0.002255  -0.001534   0.000706  -0.003600  -0.003902  -0.033330
    15  C    0.000021  -0.000112  -0.001611   0.000101  -0.000159   0.002378
    16  C    0.000036  -0.000007  -0.002004   0.001041  -0.003068   0.006676
    17  O   -0.001836   0.009449   0.014515  -0.000617   0.000128   0.000077
    18  O    0.012624  -0.001816  -0.006599  -0.000912   0.000354   0.001997
    19  H    0.466253  -0.017631  -0.001181  -0.004368  -0.000065   0.000148
    20  H   -0.017631   0.464403   0.003880  -0.001488   0.001527  -0.000718
    21  H   -0.001181   0.003880   0.513421  -0.025696   0.003670   0.000505
    22  H   -0.004368  -0.001488  -0.025696   0.500304  -0.008274   0.004044
    23  H   -0.000065   0.001527   0.003670  -0.008274   0.502886  -0.024585
    24  H    0.000148  -0.000718   0.000505   0.004044  -0.024585   0.509644
    25  H   -0.000003  -0.000003   0.000148   0.001610   0.000581   0.003896
    26  H    0.000002  -0.000003   0.000066  -0.000100  -0.005745  -0.001028
    27  H    0.000000   0.000000  -0.000002  -0.000000   0.000050  -0.000903
    28  H    0.000000   0.000005   0.000006  -0.000004  -0.000036   0.002505
    29  H   -0.000000  -0.000000  -0.000000   0.000000   0.000000  -0.000001
    30  H   -0.000000  -0.000000  -0.000000   0.000000   0.000000  -0.000000
    31  H    0.000000   0.000000   0.000000  -0.000000   0.000000   0.000000
    32  H    0.000000   0.000000   0.000000  -0.000000   0.000000   0.000000
    33  H   -0.000001  -0.000000  -0.000226   0.000070  -0.000003   0.000146
    34  H   -0.000004   0.000017  -0.001471   0.000176  -0.000034  -0.000896
    35  H   -0.000000  -0.000000  -0.000001   0.000000  -0.000000  -0.000007
    36  H   -0.000000   0.000000   0.000000  -0.000000   0.000000  -0.000000
    37  H   -0.000000   0.000000  -0.000000  -0.000000   0.000003  -0.000019
    38  H   -0.000000   0.000000   0.000009   0.000001   0.000001  -0.000001
    39  H   -0.000076  -0.000083  -0.000254   0.000004   0.000000  -0.000005
              25         26         27         28         29         30
     1  O   -0.000000  -0.000000   0.000002   0.000005   0.000000   0.000000
     2  S   -0.001141  -0.000272  -0.000624   0.002120  -0.000025  -0.000015
     3  C    0.005431  -0.003171  -0.000367   0.001611  -0.000021   0.000008
     4  C   -0.003791   0.005078  -0.001753   0.004348  -0.000132   0.000011
     5  C   -0.068653   0.004481   0.006213  -0.017023  -0.001172  -0.000020
     6  C    0.446825   0.389310  -0.025825  -0.012558   0.003350   0.000144
     7  N   -0.037560  -0.036958  -0.016617  -0.033497   0.024268  -0.010353
     8  C    0.030263  -0.065621   0.385696   0.482788  -0.025797   0.004627
     9  N   -0.001154   0.002310  -0.037639  -0.067247  -0.054678  -0.053624
    10  C   -0.005214   0.012641   0.008200  -0.004641   0.434001   0.450424
    11  N   -0.001857  -0.000268   0.000049  -0.003236  -0.063058  -0.052187
    12  C    0.000732  -0.001437   0.005673   0.002088   0.009819  -0.013060
    13  P    0.003984   0.001613   0.014804  -0.029534   0.011897  -0.010603
    14  C   -0.062267   0.039897   0.036816  -0.029948  -0.012301   0.011458
    15  C    0.000559  -0.001624  -0.010731  -0.001175   0.003310  -0.012583
    16  C   -0.000904  -0.031091  -0.050806   0.024188  -0.012721   0.006420
    17  O    0.000074  -0.000023  -0.000007   0.000020  -0.000000  -0.000000
    18  O    0.000199   0.000342   0.000375  -0.004842   0.000012   0.000003
    19  H   -0.000003   0.000002   0.000000   0.000000  -0.000000  -0.000000
    20  H   -0.000003  -0.000003   0.000000   0.000005  -0.000000  -0.000000
    21  H    0.000148   0.000066  -0.000002   0.000006  -0.000000  -0.000000
    22  H    0.001610  -0.000100  -0.000000  -0.000004   0.000000   0.000000
    23  H    0.000581  -0.005745   0.000050  -0.000036   0.000000   0.000000
    24  H    0.003896  -0.001028  -0.000903   0.002505  -0.000001  -0.000000
    25  H    0.502791  -0.027199  -0.000094  -0.000195  -0.000001  -0.000000
    26  H   -0.027199   0.511128   0.003254   0.000035   0.000053   0.000000
    27  H   -0.000094   0.003254   0.490999  -0.019089   0.003336   0.000263
    28  H   -0.000195   0.000035  -0.019089   0.463607   0.000080  -0.000135
    29  H   -0.000001   0.000053   0.003336   0.000080   0.504871  -0.014516
    30  H   -0.000000   0.000000   0.000263  -0.000135  -0.014516   0.491102
    31  H    0.000024   0.000000  -0.000004  -0.000008  -0.000121   0.000151
    32  H    0.000000  -0.000000   0.000000  -0.000004   0.000216   0.003968
    33  H    0.003044   0.000000  -0.000154  -0.000090  -0.000003  -0.000002
    34  H   -0.000549  -0.000102   0.000162   0.002968  -0.000002  -0.000003
    35  H   -0.000001  -0.000000   0.000217   0.005232  -0.000104   0.000126
    36  H   -0.000000  -0.000000  -0.000075   0.000296   0.000215   0.003828
    37  H   -0.000790   0.004410  -0.000049   0.000095   0.003298   0.000265
    38  H    0.002895  -0.000661  -0.000043  -0.000144   0.000043  -0.000137
    39  H    0.000000  -0.000000  -0.000000  -0.000002  -0.000000  -0.000000
              31         32         33         34         35         36
     1  O    0.000000   0.000000   0.000002   0.000249  -0.000009  -0.000000
     2  S    0.000038  -0.000028   0.000698   0.012700   0.000506   0.000186
     3  C   -0.000010   0.000007   0.003286   0.004783   0.000310  -0.000019
     4  C    0.000474   0.000060   0.011030  -0.019671  -0.000240   0.000136
     5  C   -0.000864  -0.000824  -0.034126   0.059205   0.000588   0.000042
     6  C   -0.004882   0.000893  -0.042011  -0.093368  -0.003318   0.001850
     7  N   -0.009465  -0.003875  -0.023934  -0.053414  -0.008030  -0.005400
     8  C    0.006101   0.009869   0.019618  -0.014628   0.002936   0.015441
     9  N   -0.006071  -0.001619  -0.002248  -0.002611  -0.047539  -0.059015
    10  C    0.007948  -0.001471   0.000474  -0.001657   0.007453   0.002759
    11  N   -0.046974  -0.054558  -0.000964   0.000937  -0.003704   0.000500
    12  C    0.365806   0.390753  -0.002815   0.017114   0.017745  -0.002586
    13  P   -0.060158  -0.048985  -0.032156  -0.032244  -0.069412  -0.086573
    14  C    0.027920   0.011147   0.406871   0.455817   0.023337   0.024041
    15  C    0.016448  -0.002593   0.019566  -0.016469   0.381781   0.408095
    16  C   -0.001874   0.004715  -0.018067   0.009016  -0.003113   0.004606
    17  O    0.000005  -0.000000   0.000685  -0.001689  -0.000244  -0.000008
    18  O    0.000001  -0.000001   0.001029  -0.003001  -0.000349  -0.000067
    19  H    0.000000   0.000000  -0.000001  -0.000004  -0.000000  -0.000000
    20  H    0.000000   0.000000  -0.000000   0.000017  -0.000000   0.000000
    21  H    0.000000   0.000000  -0.000226  -0.001471  -0.000001   0.000000
    22  H   -0.000000  -0.000000   0.000070   0.000176   0.000000  -0.000000
    23  H    0.000000   0.000000  -0.000003  -0.000034  -0.000000   0.000000
    24  H    0.000000   0.000000   0.000146  -0.000896  -0.000007  -0.000000
    25  H    0.000024   0.000000   0.003044  -0.000549  -0.000001  -0.000000
    26  H    0.000000  -0.000000   0.000000  -0.000102  -0.000000  -0.000000
    27  H   -0.000004   0.000000  -0.000154   0.000162   0.000217  -0.000075
    28  H   -0.000008  -0.000004  -0.000090   0.002968   0.005232   0.000296
    29  H   -0.000121   0.000216  -0.000003  -0.000002  -0.000104   0.000215
    30  H    0.000151   0.003968  -0.000002  -0.000003   0.000126   0.003828
    31  H    0.496826  -0.010418   0.001606  -0.000083  -0.000061  -0.000044
    32  H   -0.010418   0.480860   0.000026  -0.000051  -0.000043   0.001153
    33  H    0.001606   0.000026   0.482792  -0.021036  -0.000078  -0.000053
    34  H   -0.000083  -0.000051  -0.021036   0.453654   0.001985   0.000080
[...]
 Number     Number       Type             X           Y           Z
 ---------------------------------------------------------------------
      1          8           0        4.400870   -1.246900    0.729860
      2         16           0        3.152220   -0.639060    0.250120
      3          6           0        3.434820    1.101230   -0.216370
      4          6           0        2.180910    1.776650   -0.785870
      5          6           0        1.161060    2.187810    0.301860
      6          6           0       -0.301580    2.308380   -0.149510
      7          7           0       -1.146040    1.052990   -0.063620
      8          6           0       -1.221730    0.511060    1.414270
      9          7           0       -2.189630   -0.522910    1.559880
     10          6           0       -3.521290   -0.056500    1.148800
     11          7           0       -3.545560    0.383720   -0.257530
     12          6           0       -3.359490   -0.738070   -1.198000
     13         15           0       -1.699210   -1.622770   -0.999700
     14          6           0       -0.653770   -0.051150   -0.981590
     15          6           0       -1.794810   -1.774920    0.886270
     16          6           0       -2.616630    1.441410   -0.455400
     17          8           0        2.769250   -1.289040   -1.240420
     18          8           0        1.890170   -0.725080    1.022330
     19          1           0        4.263800    1.067790   -0.939900
     20          1           0        3.801000    1.581830    0.707050
     21          1           0        1.736110    1.115760   -1.547280
     22          1           0        2.514090    2.674220   -1.335060
     23          1           0        1.447150    3.179120    0.692730
     24          1           0        1.230990    1.503620    1.160830
     25          1           0       -0.376260    2.656670   -1.195400
     26          1           0       -0.825510    3.046390    0.481490
     27          1           0       -1.487680    1.390780    2.024190
     28          1           0       -0.215190    0.146930    1.662060
     29          1           0       -3.813680    0.792920    1.789530
     30          1           0       -4.249600   -0.869570    1.284780
     31          1           0       -3.453340   -0.363310   -2.231730
     32          1           0       -4.174660   -1.464760   -1.046240
     33          1           0       -0.595660    0.370050   -1.999760
     34          1           0        0.354650   -0.331470   -0.646900
     35          1           0       -0.811320   -2.097230    1.267180
     36          1           0       -2.522130   -2.562220    1.144130
     37          1           0       -2.866860    2.300650    0.189150
     38          1           0       -2.575950    1.756530   -1.511090
     39          1           0        3.513870   -1.872100   -1.508190
 ---------------------------------------------------------------------
                    Distance matrix (angstroms):
                    1          2          3          4          5
     1  O    0.000000
     2  S    1.469267   0.000000
     3  C    2.709671   1.823756   0.000000
     4  C    4.045678   2.802209   1.533888   0.000000
     5  C    4.740969   3.458119   2.572781   1.546707   0.000000
     6  C    5.960398   4.558052   3.927132   2.617336   1.535444
     7  N    6.057005   4.629957   4.583660   3.480506   2.596941
     8  C    5.930638   4.670060   4.968978   4.245032   3.118755
     9  N    6.681900   5.501302   6.117788   5.467370   4.489737
    10  C    8.022044   6.758901   7.182722   6.294321   5.261049
    11  N    8.171879   6.794413   7.017280   5.917082   5.071482
    12  C    8.012412   6.671523   7.106987   6.098336   5.589788
    13  P    6.351664   5.105498   5.864473   5.163052   4.939203
    14  C    5.468845   4.043304   4.316261   3.378546   3.154963
    15  C    6.220106   5.115464   6.069356   5.587133   4.978145
    16  C    7.607704   6.172985   6.065716   4.820579   3.924474
    17  O    2.558508   1.670584   2.684223   3.154555   4.129575
    18  O    2.580978   1.482052   2.693646   3.100447   3.087978
    19  H    2.857390   2.359045   1.100828   2.205593   3.524686
    20  H    2.891726   2.358400   1.103526   2.211664   2.738736
    21  H    4.227112   2.883645   2.158043   1.101984   2.213435
    22  H    4.816536   3.727979   2.138576   1.103744   2.178713
    23  H    5.321230   4.204957   3.015779   2.166006   1.103323
    24  H    4.218914   3.018542   2.629727   2.183239   1.100380
    25  H    6.462620   5.039994   4.231102   2.735191   2.196581
    26  H    6.768240   5.427560   4.735089   3.501000   2.171609
    27  H    6.580856   5.366213   5.416175   4.637228   3.258451
    28  H    4.911188   3.735078   4.214470   3.793368   2.812365
    29  H    8.530100   7.276271   7.527247   6.598145   5.376515
    30  H    8.676459   7.477339   8.073897   7.255448   6.291975
    31  H    8.440401   7.061801   7.324841   6.197960   5.849785
    32  H    8.760235   7.486354   8.073238   7.139174   6.605191
    33  H    5.918671   4.486298   4.467647   3.340867   3.418738
    34  H    4.370970   2.953922   3.424242   2.792617   2.810198
    35  H    5.308361   4.343998   5.519128   5.308051   4.814945
    36  H    7.059010   6.057726   7.124400   6.683508   6.069439
    37  H    8.105392   6.698876   6.427614   5.167710   4.031076
    38  H    7.919499   6.453886   6.183452   4.811867   4.175887
    39  H    2.487270   2.177804   3.242798   3.951190   5.029400
                    6          7          8          9         10
     6  C    0.000000
     7  N    1.515419   0.000000
     8  C    2.553907   1.575937   0.000000
     9  N    3.808274   2.491645   1.423772   0.000000
    10  C    4.200571   2.888381   2.383396   1.469641   0.000000
    11  N    3.773512   2.498644   2.865539   2.442029   1.473820
    12  C    4.441959   3.064975   3.599208   3.003459   2.449120
    13  P    4.257949   2.888241   3.257064   2.828719   3.223233
    14  C    2.526614   1.517934   2.525629   3.006741   3.572291
    15  C    4.469442   3.052911   2.415142   1.475521   2.450025
    16  C    2.490916   1.570668   2.511367   2.846443   2.373942
    17  O    4.854020   4.711630   5.120123   5.746227   6.840937
    18  O    3.921589   3.682308   3.371288   4.120024   5.454071
    19  H    4.796506   5.480370   5.995257   7.101126   8.138447
    20  H    4.253555   5.034561   5.184065   6.406629   7.516329
    21  H    2.743772   3.242218   4.229097   5.267933   6.023562
    22  H    3.076908   4.200178   5.118049   6.381794   7.074758
    23  H    2.127349   3.437605   3.842146   5.261477   5.946649
    24  H    2.171037   2.711571   2.658052   3.995836   5.001828
    25  H    1.104884   2.108382   3.482648   4.581442   4.769463
    26  H    1.103323   2.091298   2.730379   3.970346   4.164188
    27  H    2.640794   2.142375   1.103014   2.090581   2.645089
    28  H    2.821545   2.159953   1.098687   2.087472   3.351883
    29  H    4.288513   3.258543   2.634098   2.102781   1.103422
    30  H    5.267202   3.891851   3.330301   2.106972   1.100004
    31  H    4.626787   3.468464   4.363247   3.999843   3.395104
    32  H    5.481009   4.059205   4.321779   3.408708   2.688548
    33  H    2.695743   2.125550   3.473823   4.001144   4.319107
    34  H    2.765293   2.123444   2.728232   3.373409   4.280544
    35  H    4.655775   3.436125   2.644475   2.112793   3.394485
    36  H    5.507004   4.052410   3.347994   2.107650   2.697587
    37  H    2.587549   2.140507   2.722132   3.210924   2.627806
    38  H    2.707618   2.152854   3.455841   3.843949   3.354961
    39  H    5.820660   5.688382   6.053605   6.615382   7.736244
                   11         12         13         14         15
    11  N    0.000000
    12  C    1.475642   0.000000
    13  P    2.825921   1.891705   0.000000
    14  C    3.012611   2.799931   1.887661   0.000000
    15  C    3.005517   2.804900   1.894511   2.786083   0.000000
    16  C    1.421538   2.419386   3.244553   2.521395   3.580537
    17  O    6.606135   6.153602   4.487366   3.649168   5.058610
    18  O    5.693386   5.699909   4.216409   3.307795   3.834026
    19  H    7.868906   7.838514   6.542184   5.043437   6.937049
    20  H    7.505853   7.764262   6.590506   5.036180   6.527862
    21  H    5.485925   5.433583   4.427281   2.719046   5.171614
    22  H    6.567101   6.794222   6.027312   4.193795   6.579952
    23  H    5.800380   6.482517   5.985152   4.201411   5.923704
    24  H    5.106990   5.626878   4.798779   3.249553   4.469863
    25  H    4.011280   4.519284   4.483537   2.730387   5.097512
    26  H    3.877452   4.854264   4.975774   3.429993   4.934412
    27  H    3.233463   4.291641   4.274358   3.436464   3.377995
    28  H    3.851267   4.341635   3.524077   2.687094   2.605870
    29  H    2.104706   3.387559   4.252804   4.286793   3.389029
    30  H    2.108347   2.640792   3.505802   4.328538   2.646595
    31  H    2.112824   1.103563   2.486184   3.081864   3.803326
    32  H    2.105875   1.102548   2.480924   3.794620   3.081311
    33  H    3.425998   3.083749   2.487825   1.103384   3.790518
    34  H    3.984312   3.776754   2.451584   1.098867   3.009042
    35  H    3.994486   3.797051   2.480364   3.044377   1.102828
    36  H    3.419155   3.084521   2.481083   3.783507   1.102419
    37  H    2.082013   3.376491   4.262628   3.435020   4.271480
    38  H    2.096703   2.633437   3.528436   2.691255   4.339200
    39  H    7.515878   6.973186   5.243752   4.578470   5.824514
                   16         17         18         19         20
    16  C    0.000000
    17  O    6.089279   0.000000
    18  O    5.214270   2.492162   0.000000
    19  H    6.907579   2.806891   3.563544   0.000000
    20  H    6.523571   3.619260   3.012060   1.786299   0.000000
    21  H    4.499399   2.635262   3.164699   2.600082   3.092409
    22  H    5.349571   3.972593   4.183516   2.407956   2.649465
    23  H    4.566415   5.044747   3.943055   3.880298   2.844670
    24  H    4.173757   3.991390   2.328262   3.714963   2.610936
    25  H    2.654000   5.046275   4.635867   4.911209   4.714244
    26  H    2.581053   5.889247   4.678826   5.642365   4.858025
    27  H    2.724969   5.996713   4.109800   6.478401   5.453576
    28  H    3.453437   4.403780   2.366896   5.261134   4.370442
    29  H    2.625486   7.539902   5.952044   8.530593   7.731591
    30  H    3.321964   7.471067   6.147075   9.010025   8.435360
    31  H    2.666917   6.368697   6.266808   7.954315   8.065076
    32  H    3.349981   6.948847   6.450447   8.810943   8.715899
    33  H    2.759924   3.827766   4.063458   5.022399   5.303381
    34  H    3.465297   2.664489   2.301973   4.162359   4.167880
    35  H    4.329942   4.445415   3.039868   6.375374   5.926443
    36  H    4.312364   5.941866   4.781036   7.973017   7.572725
    37  H    1.102884   6.833395   5.698997   7.324002   6.726461
    38  H    1.102469   6.157915   5.702879   6.898029   6.753973
    39  H    7.047748   0.982913   3.218010   3.086795   4.113315
                   21         22         23         24         25
    21  H    0.000000
    22  H    1.754733   0.000000
    23  H    3.059182   2.346320   0.000000
    24  H    2.781985   3.040743   1.753038   0.000000
    25  H    2.638244   2.893775   2.676343   3.076458   0.000000
    26  H    3.795410   3.819855   2.286312   2.659104   1.779232
    27  H    4.819114   5.380143   3.685671   2.854696   3.633661
    28  H    3.878926   4.776912   3.591260   2.045306   3.806549
    29  H    6.483725   7.303631   5.879902   5.133133   4.919271
    30  H    6.913091   8.072764   7.013941   5.973630   5.795552
    31  H    5.439348   6.755799   6.716850   6.077651   4.434262
    32  H    6.468951   7.871083   7.496291   6.550076   5.606806
    33  H    2.489573   3.927031   4.394707   3.822429   2.433878
    34  H    2.193990   3.764428   3.913107   2.720922   3.124750
    35  H    4.973318   6.371557   5.768063   4.141070   5.371512
    36  H    6.237294   7.676601   6.994421   5.533285   6.108598
    37  H    5.060285   5.605122   4.431251   4.286233   2.871727
    38  H    4.359559   5.175099   4.802699   4.657887   2.397613
    39  H    3.476962   4.658171   5.884743   4.871416   5.978353
                   26         27         28         29         30
    26  H    0.000000
    27  H    2.357846   0.000000
    28  H    3.189530   1.815911   0.000000
    29  H    3.964626   2.413043   3.658235   0.000000
    30  H    5.263498   3.644737   4.177568   1.791277   0.000000
    31  H    5.088527   5.005348   5.089947   4.199672   3.640903
    32  H    5.822477   4.980112   5.060616   3.642666   2.406973
    33  H    3.656806   4.246147   3.688288   4.989308   5.067163
    34  H    3.751797   3.673560   2.425877   4.957360   5.021958
    35  H    5.203301   3.632732   2.355325   4.199998   3.650922
    36  H    5.896958   4.179809   3.595792   3.652616   2.422602
    37  H    2.192875   2.469286   3.720125   2.393937   3.628039
    38  H    2.949263   3.717030   4.269998   3.654396   4.185020
    39  H    6.854239   6.938270   5.294606   8.465830   8.311270
                   31         32         33         34         35
    31  H    0.000000
    32  H    1.771689   0.000000
    33  H    2.959385   4.133397   0.000000
    34  H    4.124741   4.685986   1.795954   0.000000
    35  H    4.714777   4.130858   4.099619   2.853261   0.000000
    36  H    4.135068   2.955164   4.711002   4.057080   1.777140
    37  H    3.647095   4.173109   3.698228   4.243249   4.972800
    38  H    2.404757   3.626109   2.466308   3.700674   5.067955
    39  H    7.165331   7.713159   4.707134   3.618844   5.143990
                   36         37         38         39
    36  H    0.000000
    37  H    4.967729   0.000000
    38  H    5.069979   1.808732   0.000000
    39  H    6.629054   7.810667   7.088926   0.000000
 Stoichiometry    C10H21N3O3PS(2)
 Framework group  C1[X(C10H21N3O3PS)]
 Deg. of freedom   111
 Full point group                 C1      NOp   1
 Largest Abelian subgroup         C1      NOp   1
 Largest concise Abelian subgroup C1      NOp   1
                         Standard orientation:                         
 ---------------------------------------------------------------------
 Center     Atomic      Atomic             Coordinates (Angstroms)
 Number     Number       Type             X           Y           Z
 ---------------------------------------------------------------------
      1          8           0        4.400871   -1.246900    0.729860
      2         16           0        3.152221   -0.639060    0.250120
      3          6           0        3.434821    1.101230   -0.216370
      4          6           0        2.180911    1.776650   -0.785870
      5          6           0        1.161061    2.187810    0.301860
      6          6           0       -0.301579    2.308380   -0.149510
      7          7           0       -1.146039    1.052990   -0.063620
      8          6           0       -1.221729    0.511060    1.414270
      9          7           0       -2.189629   -0.522909    1.559880
     10          6           0       -3.521289   -0.056499    1.148800
     11          7           0       -3.545559    0.383721   -0.257530
     12          6           0       -3.359489   -0.738069   -1.198000
     13         15           0       -1.699209   -1.622769   -0.999700
     14          6           0       -0.653769   -0.051150   -0.981590
     15          6           0       -1.794809   -1.774919    0.886270
     16          6           0       -2.616629    1.441411   -0.455400
     17          8           0        2.769251   -1.289040   -1.240420
     18          8           0        1.890171   -0.725080    1.022330
     19          1           0        4.263801    1.067790   -0.939900
     20          1           0        3.801001    1.581830    0.707050
     21          1           0        1.736111    1.115760   -1.547280
     22          1           0        2.514091    2.674220   -1.335060
     23          1           0        1.447151    3.179120    0.692730
     24          1           0        1.230991    1.503620    1.160830
     25          1           0       -0.376259    2.656670   -1.195400
     26          1           0       -0.825509    3.046390    0.481490
     27          1           0       -1.487679    1.390781    2.024190
     28          1           0       -0.215189    0.146930    1.662060
     29          1           0       -3.813679    0.792921    1.789530
     30          1           0       -4.249599   -0.869569    1.284780
     31          1           0       -3.453339   -0.363309   -2.231730
     32          1           0       -4.174659   -1.464759   -1.046240
     33          1           0       -0.595659    0.370050   -1.999760
     34          1           0        0.354651   -0.331470   -0.646900
     35          1           0       -0.811319   -2.097230    1.267180
     36          1           0       -2.522129   -2.562219    1.144130
     37          1           0       -2.866859    2.300651    0.189150
     38          1           0       -2.575949    1.756531   -1.511090
     39          1           0        3.513871   -1.872100   -1.508190
 ---------------------------------------------------------------------
 Rotational constants (GHZ):           0.6848990           0.2301969           0.2071111
 Standard basis: def2TZVP (5D, 7F)
 There are   786 symmetry adapted cartesian basis functions of A   symmetry.
 There are   696 symmetry adapted basis functions of A   symmetry.
   696 basis functions,  1122 primitive gaussians,   786 cartesian basis functions
    79 alpha electrons       78 beta electrons
       nuclear repulsion energy      1880.9555729791 Hartrees.
 NAtoms=   39 NActive=   39 NUniq=   39 SFac= 1.00D+00 NAtFMM=   60 NAOKFM=F Big=F
 Integral buffers will be    131072 words long.
 Raffenetti 2 integral format.
 Two-electron integral symmetry is turned on.
 Nuclear repulsion after empirical dispersion term =     1880.9042143363 Hartrees.
 One-electron integrals computed using PRISM.
   1 Symmetry operations used in ECPInt.
 ECPInt:  NShTT=   41041 NPrTT=  125737 LenC2=   37253 LenP2D=   82707.
 LDataN:  DoStor=T MaxTD1= 6 Len=  172
 NBasis=   696 RedAO= T EigKep=  9.15D-05  NBF=   696
 NBsUse=   696 1.00D-06 EigRej= -1.00D+00 NBFU=   696
 Initial guess from the checkpoint file:  "90000042_noNi_00000_sp_ra.chk"
 B after Tr=    -0.000000    0.000000   -0.000000
         Rot=    1.000000    0.000000   -0.000000   -0.000000 Ang=   0.00 deg.
 Initial guess <Sx>= 0.0000 <Sy>= 0.0000 <Sz>= 0.5000 <S**2>= 0.7500 S= 0.5000
 Requested convergence on RMS density matrix=1.00D-08 within 128 cycles.
 Requested convergence on MAX density matrix=1.00D-06.
 Requested convergence on             energy=1.00D-06.
 No special actions if energy rises.
 Restarting incremental Fock formation.
 Restarting incremental Fock formation.
 Restarting incremental Fock formation.
 Restarting incremental Fock formation.
 Restarting incremental Fock formation.
 Restarting incremental Fock formation.
 >>>>>>>>>> Convergence criterion not met.
 SCF Done:  E(UPBE1PBE) =  -1522.20285401     A.U. after  129 cycles
            NFock=128  Conv=0.22D-03     -V/T= 2.0039
 <Sx>= 0.0000 <Sy>= 0.0000 <Sz>= 0.5000 <S**2>= 0.7512 S= 0.5006
 <L.S>=  0.00000000000    
 Annihilation of the first spin contaminant:
 S**2 before annihilation     0.7512,   after     0.7500
 Convergence failure -- run terminated.
 Error termination via Lnk1e in /uufs/chpc.utah.edu/sys/installdir/gaussian16/C01/AVX/g16/l502.exe at Mon Sep 29 11:48:47 2025.
 Job cpu time:       1 days  4 hours 30 minutes 36.3 seconds.
 Elapsed time:       0 days  1 hours 47 minutes 28.9 seconds.
 File lengths (MBytes):  RWF=    470 Int=      0 D2E=      0 Chk=     70 Scr=      2
