 Entering Gaussian System, Link 0=g16
 Input=IH4_5_aniccx.com
 Output=IH4_5_aniccx.log
 Initial command:
 /home1/apps/gaussian/16rA.03/g16/l1.exe "/tmp/Gau-209443.inp" -scrdir="/tmp/"
 Entering Link 1 = /home1/apps/gaussian/16rA.03/g16/l1.exe PID=    209444.

 Copyright (c) 1988,1990,1992,1993,1995,1998,2003,2009,2016,
            Gaussian, Inc.  All Rights Reserved.

 This is part of the Gaussian(R) 16 program.  It is based on
 the Gaussian(R) 09 system (copyright 2009, Gaussian, Inc.),
 the Gaussian(R) 03 system (copyright 2003, Gaussian, Inc.),
 the Gaussian(R) 98 system (copyright 1998, Gaussian, Inc.),
 the Gaussian(R) 94 system (copyright 1995, Gaussian, Inc.),
 the Gaussian 92(TM) system (copyright 1992, Gaussian, Inc.),
 the Gaussian 90(TM) system (copyright 1990, Gaussian, Inc.),
 the Gaussian 88(TM) system (copyright 1988, Gaussian, Inc.),
 the Gaussian 86(TM) system (copyright 1986, Carnegie Mellon
 University), and the Gaussian 82(TM) system (copyright 1983,
 Carnegie Mellon University). Gaussian is a federally registered
 trademark of Gaussian, Inc.

 This software contains proprietary and confidential information,
 including trade secrets, belonging to Gaussian, Inc.

 This software is provided under written license and may be
 used, copied, transmitted, or stored only in accord with that
 written license.

 The following legend is applicable only to US Government
 contracts under FAR:

                    RESTRICTED RIGHTS LEGEND

 Use, reproduction and disclosure by the US Government is
 subject to restrictions as set forth in subparagraphs (a)
 and (c) of the Commercial Computer Software - Restricted
 Rights clause in FAR 52.227-19.

 Gaussian, Inc.
 340 Quinnipiac St., Bldg. 40, Wallingford CT 06492


 ---------------------------------------------------------------
 Warning -- This program may not be used in any manner that
 competes with the business of Gaussian, Inc. or will provide
 assistance to any competitor of Gaussian, Inc.  The licensee
 of this program is prohibited from giving any competitor of
 Gaussian, Inc. access to this program.  By using this program,
 the user acknowledges that Gaussian, Inc. is engaged in the
 business of creating and licensing software in the field of
 computational chemistry and represents and warrants to the
 licensee that it is not a competitor of Gaussian, Inc. and that
 it will not use this program in any manner prohibited above.
 ---------------------------------------------------------------


 Cite this work as:
 Gaussian 16, Revision A.03,
 M. J. Frisch, G. W. Trucks, H. B. Schlegel, G. E. Scuseria,
 M. A. Robb, J. R. Cheeseman, G. Scalmani, V. Barone,
 G. A. Petersson, H. Nakatsuji, X. Li, M. Caricato, A. V. Marenich,
 J. Bloino, B. G. Janesko, R. Gomperts, B. Mennucci, H. P. Hratchian,
 J. V. Ortiz, A. F. Izmaylov, J. L. Sonnenberg, D. Williams-Young,
 F. Ding, F. Lipparini, F. Egidi, J. Goings, B. Peng, A. Petrone,
 T. Henderson, D. Ranasinghe, V. G. Zakrzewski, J. Gao, N. Rega,
 G. Zheng, W. Liang, M. Hada, M. Ehara, K. Toyota, R. Fukuda,
 J. Hasegawa, M. Ishida, T. Nakajima, Y. Honda, O. Kitao, H. Nakai,
 T. Vreven, K. Throssell, J. A. Montgomery, Jr., J. E. Peralta,
 F. Ogliaro, M. J. Bearpark, J. J. Heyd, E. N. Brothers, K. N. Kudin,
 V. N. Staroverov, T. A. Keith, R. Kobayashi, J. Normand,
 K. Raghavachari, A. P. Rendell, J. C. Burant, S. S. Iyengar,
 J. Tomasi, M. Cossi, J. M. Millam, M. Klene, C. Adamo, R. Cammi,
 J. W. Ochterski, R. L. Martin, K. Morokuma, O. Farkas,
 J. B. Foresman, and D. J. Fox, Gaussian, Inc., Wallingford CT, 2016.

 ******************************************
 Gaussian 16:  ES64L-G16RevA.03 25-Dec-2016
                13-Jun-2022
 ******************************************
 %mem=160GB
 %nprocshared=48
 Will use up to   48 processors via shared memory.
 %chk=IH4_5_aniccx.chk
 ---------------------------------------------------------------
 # b3lyp/6-31G(d,p) emp=GD3 opt SCRF=(Solvent=acetonitrile) freq
 ---------------------------------------------------------------
 1/18=20,19=15,26=3,38=1/1,3;
 2/9=110,12=2,17=6,18=5,40=1/2;
 3/5=1,6=6,7=101,11=2,25=1,30=1,70=2201,71=1,72=2,74=-5,124=31/1,2,3;
 4//1;
 5/5=2,38=5,53=2/2;
 6/7=2,8=2,9=2,10=2,28=1/1;
 7//1,2,3,16;
 1/18=20,19=15,26=3/3(2);
 2/9=110/2;
 99//99;
 2/9=110/2;
 3/5=1,6=6,7=101,11=2,25=1,30=1,70=2205,71=1,72=2,74=-5,124=31/1,2,3;
 4/5=5,16=3,69=1/1;
 5/5=2,38=5,53=2/2;
 7//1,2,3,16;
 1/18=20,19=15,26=3/3(-5);
 2/9=110/2;
 6/7=2,8=2,9=2,10=2,19=2,28=1/1;
 99/9=1/99;
 -------------------------------
 Generated by prepareg16files.py
 -------------------------------
 Symbolic Z-matrix:
 Charge =  0 Multiplicity = 1
 C                    -2.80919   0.67368  -1.02629
 C                     0.0707    1.13253   0.71536
 C                    -0.06007  -0.97198  -0.43643
 C                     1.45658   1.12623   0.59684
 C                     1.32298  -0.99713  -0.56652
 C                    -2.21733   0.143     0.27944
 C                    -0.70263   0.09035   0.20257
 C                     2.05913   0.05647  -0.04575
 F                     3.39849   0.03654  -0.16682
 N                    -2.75713  -1.19742   0.51246
 H                    -2.44582   1.68319  -1.24091
 H                    -3.90384   0.70804  -0.97005
 H                    -2.52595   0.01843  -1.85675
 H                    -0.41521   1.96539   1.22008
 H                    -0.66393  -1.78906  -0.82199
 H                     2.06962   1.93101   0.99098
 H                     1.83723  -1.81565  -1.06028
 H                    -2.47567   0.85216   1.08742
 H                    -3.77033  -1.14887   0.57614
 H                    -2.42475  -1.54706   1.40745


 GradGradGradGradGradGradGradGradGradGradGradGradGradGradGradGradGradGrad
 Berny optimization.
 Initialization pass.
                           ----------------------------
                           !    Initial Parameters    !
                           ! (Angstroms and Degrees)  !
 --------------------------                            --------------------------
 ! Name  Definition              Value          Derivative Info.                !
 --------------------------------------------------------------------------------
 ! R1    R(1,6)                  1.5287         estimate D2E/DX2                !
 ! R2    R(1,11)                 1.0942         estimate D2E/DX2                !
 ! R3    R(1,12)                 1.0966         estimate D2E/DX2                !
 ! R4    R(1,13)                 1.0951         estimate D2E/DX2                !
 ! R5    R(2,4)                  1.391          estimate D2E/DX2                !
 ! R6    R(2,7)                  1.3954         estimate D2E/DX2                !
 ! R7    R(2,14)                 1.0883         estimate D2E/DX2                !
 ! R8    R(3,5)                  1.3894         estimate D2E/DX2                !
 ! R9    R(3,7)                  1.3963         estimate D2E/DX2                !
 ! R10   R(3,15)                 1.0867         estimate D2E/DX2                !
 ! R11   R(4,8)                  1.3858         estimate D2E/DX2                !
 ! R12   R(4,16)                 1.0857         estimate D2E/DX2                !
 ! R13   R(5,8)                  1.3868         estimate D2E/DX2                !
 ! R14   R(5,17)                 1.0855         estimate D2E/DX2                !
 ! R15   R(6,7)                  1.5176         estimate D2E/DX2                !
 ! R16   R(6,10)                 1.4637         estimate D2E/DX2                !
 ! R17   R(6,18)                 1.1057         estimate D2E/DX2                !
 ! R18   R(8,9)                  1.345          estimate D2E/DX2                !
 ! R19   R(10,19)                1.0164         estimate D2E/DX2                !
 ! R20   R(10,20)                1.0167         estimate D2E/DX2                !
 ! A1    A(6,1,11)             111.0542         estimate D2E/DX2                !
 ! A2    A(6,1,12)             110.7042         estimate D2E/DX2                !
 ! A3    A(6,1,13)             109.87           estimate D2E/DX2                !
 ! A4    A(11,1,12)            108.2191         estimate D2E/DX2                !
 ! A5    A(11,1,13)            108.5059         estimate D2E/DX2                !
 ! A6    A(12,1,13)            108.4103         estimate D2E/DX2                !
 ! A7    A(4,2,7)              121.1634         estimate D2E/DX2                !
 ! A8    A(4,2,14)             119.1974         estimate D2E/DX2                !
 ! A9    A(7,2,14)             119.639          estimate D2E/DX2                !
 ! A10   A(5,3,7)              120.9776         estimate D2E/DX2                !
 ! A11   A(5,3,15)             120.4186         estimate D2E/DX2                !
 ! A12   A(7,3,15)             118.5999         estimate D2E/DX2                !
 ! A13   A(2,4,8)              118.4399         estimate D2E/DX2                !
 ! A14   A(2,4,16)             121.8892         estimate D2E/DX2                !
 ! A15   A(8,4,16)             119.6708         estimate D2E/DX2                !
 ! A16   A(3,5,8)              118.6526         estimate D2E/DX2                !
 ! A17   A(3,5,17)             121.86           estimate D2E/DX2                !
 ! A18   A(8,5,17)             119.4872         estimate D2E/DX2                !
 ! A19   A(1,6,7)              110.8066         estimate D2E/DX2                !
 ! A20   A(1,6,10)             108.1259         estimate D2E/DX2                !
 ! A21   A(1,6,18)             108.1235         estimate D2E/DX2                !
 ! A22   A(7,6,10)             110.1447         estimate D2E/DX2                !
 ! A23   A(7,6,18)             107.0066         estimate D2E/DX2                !
 ! A24   A(10,6,18)            112.6355         estimate D2E/DX2                !
 ! A25   A(2,7,3)              118.7742         estimate D2E/DX2                !
 ! A26   A(2,7,6)              120.5726         estimate D2E/DX2                !
 ! A27   A(3,7,6)              120.5895         estimate D2E/DX2                !
 ! A28   A(4,8,5)              121.9921         estimate D2E/DX2                !
 ! A29   A(4,8,9)              119.09           estimate D2E/DX2                !
 ! A30   A(5,8,9)              118.9178         estimate D2E/DX2                !
 ! A31   A(6,10,19)            109.5046         estimate D2E/DX2                !
 ! A32   A(6,10,20)            109.5421         estimate D2E/DX2                !
 ! A33   A(19,10,20)           106.6883         estimate D2E/DX2                !
 ! D1    D(11,1,6,7)           -59.9374         estimate D2E/DX2                !
 ! D2    D(11,1,6,10)          179.2622         estimate D2E/DX2                !
 ! D3    D(11,1,6,18)           57.0371         estimate D2E/DX2                !
 ! D4    D(12,1,6,7)           179.8215         estimate D2E/DX2                !
 ! D5    D(12,1,6,10)           59.0212         estimate D2E/DX2                !
 ! D6    D(12,1,6,18)          -63.2039         estimate D2E/DX2                !
 ! D7    D(13,1,6,7)            60.1129         estimate D2E/DX2                !
 ! D8    D(13,1,6,10)          -60.6875         estimate D2E/DX2                !
 ! D9    D(13,1,6,18)          177.0874         estimate D2E/DX2                !
 ! D10   D(7,2,4,8)              0.0135         estimate D2E/DX2                !
 ! D11   D(7,2,4,16)           179.9714         estimate D2E/DX2                !
 ! D12   D(14,2,4,8)           179.8401         estimate D2E/DX2                !
 ! D13   D(14,2,4,16)           -0.202          estimate D2E/DX2                !
 ! D14   D(4,2,7,3)              0.1012         estimate D2E/DX2                !
 ! D15   D(4,2,7,6)           -177.0143         estimate D2E/DX2                !
 ! D16   D(14,2,7,3)          -179.7246         estimate D2E/DX2                !
 ! D17   D(14,2,7,6)             3.1599         estimate D2E/DX2                !
 ! D18   D(7,3,5,8)              0.101          estimate D2E/DX2                !
 ! D19   D(7,3,5,17)           179.9891         estimate D2E/DX2                !
 ! D20   D(15,3,5,8)          -179.1711         estimate D2E/DX2                !
 ! D21   D(15,3,5,17)            0.717          estimate D2E/DX2                !
 ! D22   D(5,3,7,2)             -0.1595         estimate D2E/DX2                !
 ! D23   D(5,3,7,6)            176.9555         estimate D2E/DX2                !
 ! D24   D(15,3,7,2)           179.1256         estimate D2E/DX2                !
 ! D25   D(15,3,7,6)            -3.7594         estimate D2E/DX2                !
 ! D26   D(2,4,8,5)             -0.0749         estimate D2E/DX2                !
 ! D27   D(2,4,8,9)           -179.9514         estimate D2E/DX2                !
 ! D28   D(16,4,8,5)           179.9662         estimate D2E/DX2                !
 ! D29   D(16,4,8,9)             0.0897         estimate D2E/DX2                !
 ! D30   D(3,5,8,4)              0.0184         estimate D2E/DX2                !
 ! D31   D(3,5,8,9)            179.8952         estimate D2E/DX2                !
 ! D32   D(17,5,8,4)          -179.8723         estimate D2E/DX2                !
 ! D33   D(17,5,8,9)             0.0044         estimate D2E/DX2                !
 ! D34   D(1,6,7,2)             96.3142         estimate D2E/DX2                !
 ! D35   D(1,6,7,3)            -80.7487         estimate D2E/DX2                !
 ! D36   D(10,6,7,2)          -144.0891         estimate D2E/DX2                !
 ! D37   D(10,6,7,3)            38.848          estimate D2E/DX2                !
 ! D38   D(18,6,7,2)           -21.3448         estimate D2E/DX2                !
 ! D39   D(18,6,7,3)           161.5923         estimate D2E/DX2                !
 ! D40   D(1,6,10,19)          -59.6313         estimate D2E/DX2                !
 ! D41   D(1,6,10,20)         -176.3104         estimate D2E/DX2                !
 ! D42   D(7,6,10,19)          179.1571         estimate D2E/DX2                !
 ! D43   D(7,6,10,20)           62.478          estimate D2E/DX2                !
 ! D44   D(18,6,10,19)          59.7833         estimate D2E/DX2                !
 ! D45   D(18,6,10,20)         -56.8958         estimate D2E/DX2                !
 --------------------------------------------------------------------------------
 Trust Radius=3.00D-01 FncErr=1.00D-07 GrdErr=1.00D-06 EigMax=2.50D+02 EigMin=1.00D-04
 Number of steps in this run=    108 maximum allowed number of steps=    120.
 GradGradGradGradGradGradGradGradGradGradGradGradGradGradGradGradGradGrad

                          Input orientation:
 ---------------------------------------------------------------------
 Center     Atomic      Atomic             Coordinates (Angstroms)
 Number     Number       Type             X           Y           Z
 ---------------------------------------------------------------------
      1          6           0       -2.809194    0.673679   -1.026289
      2          6           0        0.070696    1.132534    0.715362
      3          6           0       -0.060070   -0.971976   -0.436429
      4          6           0        1.456579    1.126230    0.596841
      5          6           0        1.322976   -0.997128   -0.566521
      6          6           0       -2.217334    0.142998    0.279441
      7          6           0       -0.702634    0.090354    0.202567
      8          6           0        2.059132    0.056475   -0.045751
      9          9           0        3.398495    0.036538   -0.166821
     10          7           0       -2.757130   -1.197415    0.512456
     11          1           0       -2.445819    1.683190   -1.240909
     12          1           0       -3.903837    0.708038   -0.970049
     13          1           0       -2.525947    0.018433   -1.856749
     14          1           0       -0.415210    1.965385    1.220082
     15          1           0       -0.663929   -1.789057   -0.821989
     16          1           0        2.069620    1.931008    0.990981
     17          1           0        1.837229   -1.815654   -1.060276
     18          1           0       -2.475675    0.852157    1.087416
     19          1           0       -3.770331   -1.148873    0.576138
     20          1           0       -2.424749   -1.547057    1.407450
 ---------------------------------------------------------------------
                    Distance matrix (angstroms):
                    1          2          3          4          5
     1  C    0.000000
     2  C    3.396713   0.000000
     3  C    3.257882   2.402641   0.000000
     4  C    4.586521   1.390957   2.787533   0.000000
     5  C    4.480827   2.783323   1.389378   2.424852   0.000000
     6  C    1.528676   2.530669   2.531684   3.816428   3.814358
     7  C    2.507579   1.395398   1.396334   2.427074   2.424295
     8  C    5.004297   2.385597   2.387751   1.385774   1.386797
     9  F    6.299209   3.612990   3.612681   2.354069   2.352872
    10  N    2.423106   3.669664   2.867985   4.812670   4.225111
    11  H    1.094173   3.234667   3.659084   4.349281   4.673619
    12  H    1.096626   4.337940   4.228681   5.600366   5.512713
    13  H    1.095098   3.820933   3.013099   4.807061   4.184526
    14  H    3.527867   1.088341   3.390906   2.143876   3.871656
    15  H    3.272457   3.382132   1.086703   3.874085   2.154113
    16  H    5.427069   2.170074   3.873034   1.085740   3.399598
    17  H    5.271354   3.868506   2.168114   3.397883   1.085466
    18  H    2.147286   2.588636   3.388910   3.972204   4.537081
    19  H    2.610221   4.469641   3.850015   5.700624   5.222113
    20  H    3.317010   3.726452   3.053247   4.782077   4.271349
                    6          7          8          9         10
     6  C    0.000000
     7  C    1.517563   0.000000
     8  C    4.289684   2.773113   0.000000
     9  F    5.634537   4.118082   1.344972   0.000000
    10  N    1.463688   2.444450   5.008014   6.314726   0.000000
    11  H    2.176203   2.767570   4.936516   6.166128   3.386604
    12  H    2.173658   3.464718   6.069255   7.377001   2.672735
    13  H    2.161959   2.751441   4.929920   6.160779   2.672988
    14  H    2.730119   2.152601   3.371741   4.493138   3.998578
    15  H    2.712758   2.140888   3.379880   4.501703   2.551916
    16  H    4.699068   3.419794   2.142148   2.587552   5.771787
    17  H    4.697940   3.417388   2.140880   2.581943   4.895287
    18  H    1.105653   2.122964   4.741481   6.061700   2.147217
    19  H    2.041755   3.329565   5.985168   7.304057   1.016360
    20  H    2.042478   2.664309   4.978785   6.236688   1.016731
                   11         12         13         14         15
    11  H    0.000000
    12  H    1.774853   0.000000
    13  H    1.776821   1.777744   0.000000
    14  H    3.203043   4.306753   4.208648   0.000000
    15  H    3.925192   4.093216   2.793719   4.281093   0.000000
    16  H    5.043009   6.404958   5.734696   2.495605   4.959640
    17  H    5.533447   6.271922   4.799536   4.956790   2.512623
    18  H    2.472368   2.508701   3.060347   2.345718   3.728842
    19  H    3.616154   2.420050   2.971537   4.622781   3.466169
    20  H    4.177170   3.595228   3.621601   4.051001   2.851220
                   16         17         18         19         20
    16  H    0.000000
    17  H    4.277748   0.000000
    18  H    4.672571   5.507352   0.000000
    19  H    6.615345   5.879385   2.437552   0.000000
    20  H    5.698222   4.932167   2.421001   1.631018   0.000000
 Stoichiometry    C8H10FN
 Framework group  C1[X(C8H10FN)]
 Deg. of freedom    54
 Full point group                 C1      NOp   1
 Largest Abelian subgroup         C1      NOp   1
 Largest concise Abelian subgroup C1      NOp   1
                         Standard orientation:
 ---------------------------------------------------------------------
 Center     Atomic      Atomic             Coordinates (Angstroms)
 Number     Number       Type             X           Y           Z
 ---------------------------------------------------------------------
      1          6           0        2.661814    0.489020    1.188906
      2          6           0       -0.249221    1.273531   -0.375728
      3          6           0       -0.006047   -1.060090    0.141733
      4          6           0       -1.632229    1.165472   -0.273891
      5          6           0       -1.385204   -1.189317    0.249420
      6          6           0        2.088129    0.316431   -0.217490
      7          6           0        0.578485    0.169208   -0.169554
      8          6           0       -2.176407   -0.069963    0.039062
      9          9           0       -3.512259   -0.189494    0.139870
     10          7           0        2.692309   -0.876601   -0.812490
     11          1           0        2.250164    1.378722    1.674900
     12          1           0        3.752982    0.592074    1.152574
     13          1           0        2.417214   -0.385758    1.800603
     14          1           0        0.191186    2.237447   -0.623509
     15          1           0        0.640334   -1.921401    0.287540
     16          1           0       -2.287228    2.016934   -0.431447
     17          1           0       -1.854711   -2.137837    0.490478
     18          1           0        2.305329    1.235363   -0.792691
     19          1           0        3.701381   -0.761912   -0.852594
     20          1           0        2.371593   -0.977737   -1.771998
 ---------------------------------------------------------------------
 Rotational constants (GHZ):           3.3911451           0.7314543           0.6719615
 Standard basis: 6-31G(d,p) (6D, 7F)
 There are   200 symmetry adapted cartesian basis functions of A   symmetry.
 There are   200 symmetry adapted basis functions of A   symmetry.
   200 basis functions,   350 primitive gaussians,   200 cartesian basis functions
    37 alpha electrons       37 beta electrons
       nuclear repulsion energy       507.6886483002 Hartrees.
 NAtoms=   20 NActive=   20 NUniq=   20 SFac= 1.00D+00 NAtFMM=   60 NAOKFM=F Big=F
 Integral buffers will be    131072 words long.
 Raffenetti 2 integral format.
 Two-electron integral symmetry is turned on.
 Nuclear repulsion after empirical dispersion term =      507.6738170043 Hartrees.
 ------------------------------------------------------------------------------
 Polarizable Continuum Model (PCM)
 =================================
 Model                : PCM.
 Atomic radii         : UFF (Universal Force Field).
 Polarization charges : Total charges.
 Charge compensation  : None.
 Solution method      : On-the-fly selection.
 Cavity type          : Scaled VdW (van der Waals Surface) (Alpha=1.100).
 Cavity algorithm     : GePol (No added spheres)
                        Default sphere list used, NSphG=   20.
                        Lebedev-Laikov grids with approx.  5.0 points / Ang**2.
                        Smoothing algorithm: York/Karplus (Gamma=1.0000).
                        Polarization charges: spherical gaussians, with
                                              point-specific exponents (IZeta= 3).
                        Self-potential: point-specific (ISelfS= 7).
                        Self-field    : sphere-specific E.n sum rule (ISelfD= 2).
 1st derivatives      : Analytical E(r).r(x)/FMM algorithm (CHGder, D1EAlg=3).
                        Cavity 1st derivative terms included.
 Solvent              : Acetonitrile, Eps=  35.688000 Eps(inf)=   1.806874
 ------------------------------------------------------------------------------
 Spheres list:
 ISph  on   Nord     Re0    Alpha      Xe            Ye            Ze
    1   C      1    1.9255  1.100      2.661814      0.489020      1.188906
    2   C      2    1.9255  1.100     -0.249221      1.273531     -0.375728
    3   C      3    1.9255  1.100     -0.006047     -1.060090      0.141733
    4   C      4    1.9255  1.100     -1.632229      1.165472     -0.273891
    5   C      5    1.9255  1.100     -1.385204     -1.189317      0.249420
    6   C      6    1.9255  1.100      2.088129      0.316431     -0.217490
    7   C      7    1.9255  1.100      0.578485      0.169208     -0.169554
    8   C      8    1.9255  1.100     -2.176407     -0.069963      0.039062
    9   F      9    1.6820  1.100     -3.512259     -0.189494      0.139870
   10   N     10    1.8300  1.100      2.692309     -0.876601     -0.812490
   11   H     11    1.4430  1.100      2.250164      1.378722      1.674900
   12   H     12    1.4430  1.100      3.752982      0.592074      1.152574
   13   H     13    1.4430  1.100      2.417214     -0.385758      1.800603
   14   H     14    1.4430  1.100      0.191186      2.237447     -0.623509
   15   H     15    1.4430  1.100      0.640334     -1.921401      0.287540
   16   H     16    1.4430  1.100     -2.287228      2.016934     -0.431447
   17   H     17    1.4430  1.100     -1.854711     -2.137837      0.490478
   18   H     18    1.4430  1.100      2.305329      1.235363     -0.792691
   19   H     19    1.4430  1.100      3.701381     -0.761912     -0.852594
   20   H     20    1.4430  1.100      2.371593     -0.977737     -1.771998
 ------------------------------------------------------------------------------
 One-electron integrals computed using PRISM.
 NBasis=   200 RedAO= T EigKep=  4.34D-04  NBF=   200
 NBsUse=   200 1.00D-06 EigRej= -1.00D+00 NBFU=   200
 ExpMin= 1.61D-01 ExpMax= 7.00D+03 ExpMxC= 1.05D+03 IAcc=3 IRadAn=         5 AccDes= 0.00D+00
 Harris functional with IExCor=  402 and IRadAn=       5 diagonalized for initial guess.
 HarFok:  IExCor=  402 AccDes= 0.00D+00 IRadAn=         5 IDoV= 1 UseB2=F ITyADJ=14
 ICtDFT=  3500011 ScaDFX=  1.000000  1.000000  1.000000  1.000000
 FoFCou: FMM=F IPFlag=           0 FMFlag=      100000 FMFlg1=           0
         NFxFlg=           0 DoJE=T BraDBF=F KetDBF=T FulRan=T
         wScrn=  0.000000 ICntrl=       500 IOpCl=  0 I1Cent=   200000004 NGrid=           0
         NMat0=    1 NMatS0=      1 NMatT0=    0 NMatD0=    1 NMtDS0=    0 NMtDT0=    0
 Petite list used in FoFCou.
 Requested convergence on RMS density matrix=1.00D-08 within 128 cycles.
 Requested convergence on MAX density matrix=1.00D-06.
 Requested convergence on             energy=1.00D-06.
 No special actions if energy rises.
 Inv3:  Mode=1 IEnd=     7718448.
 Iteration    1 A*A^-1 deviation from unit magnitude is 3.00D-15 for    911.
 Iteration    1 A*A^-1 deviation from orthogonality  is 1.67D-15 for   1306    919.
 Iteration    1 A^-1*A deviation from unit magnitude is 2.89D-15 for   1263.
 Iteration    1 A^-1*A deviation from orthogonality  is 2.22D-15 for   1262    759.
 Error on total polarization charges =  0.00745
 SCF Done:  E(RB3LYP) =  -465.494476850     A.U. after   12 cycles
            NFock= 12  Conv=0.67D-08     -V/T= 2.0088

 **********************************************************************

            Population analysis using the SCF density.

 **********************************************************************

 Orbital symmetries:
       Occupied  (A) (A) (A) (A) (A) (A) (A) (A) (A) (A) (A) (A)
                 (A) (A) (A) (A) (A) (A) (A) (A) (A) (A) (A) (A)
                 (A) (A) (A) (A) (A) (A) (A) (A) (A) (A) (A) (A)
                 (A)
       Virtual   (A) (A) (A) (A) (A) (A) (A) (A) (A) (A) (A) (A)
                 (A) (A) (A) (A) (A) (A) (A) (A) (A) (A) (A) (A)
                 (A) (A) (A) (A) (A) (A) (A) (A) (A) (A) (A) (A)
                 (A) (A) (A) (A) (A) (A) (A) (A) (A) (A) (A) (A)
                 (A) (A) (A) (A) (A) (A) (A) (A) (A) (A) (A) (A)
                 (A) (A) (A) (A) (A) (A) (A) (A) (A) (A) (A) (A)
                 (A) (A) (A) (A) (A) (A) (A) (A) (A) (A) (A) (A)
                 (A) (A) (A) (A) (A) (A) (A) (A) (A) (A) (A) (A)
                 (A) (A) (A) (A) (A) (A) (A) (A) (A) (A) (A) (A)
                 (A) (A) (A) (A) (A) (A) (A) (A) (A) (A) (A) (A)
                 (A) (A) (A) (A) (A) (A) (A) (A) (A) (A) (A) (A)
                 (A) (A) (A) (A) (A) (A) (A) (A) (A) (A) (A) (A)
                 (A) (A) (A) (A) (A) (A) (A) (A) (A) (A) (A) (A)
                 (A) (A) (A) (A) (A) (A) (A)
 The electronic state is 1-A.
 Alpha  occ. eigenvalues --  -24.70564 -14.31175 -10.26822 -10.21634 -10.19415
 Alpha  occ. eigenvalues --  -10.19318 -10.19271 -10.19130 -10.19057 -10.17368
 Alpha  occ. eigenvalues --   -1.21950  -0.89200  -0.85582  -0.76228  -0.75351
 Alpha  occ. eigenvalues --   -0.71569  -0.62823  -0.62158  -0.57294  -0.53894
 Alpha  occ. eigenvalues --   -0.49879  -0.48989  -0.46167  -0.45907  -0.44961
 Alpha  occ. eigenvalues --   -0.43640  -0.42471  -0.41097  -0.39131  -0.36718
 Alpha  occ. eigenvalues --   -0.36486  -0.34843  -0.33926  -0.33646  -0.25855
 Alpha  occ. eigenvalues --   -0.24521  -0.23223
 Alpha virt. eigenvalues --   -0.00795   0.00407   0.08616   0.10143   0.13090
 Alpha virt. eigenvalues --    0.14033   0.14840   0.15597   0.16926   0.17522
 Alpha virt. eigenvalues --    0.18204   0.19269   0.20037   0.20997   0.23556
 Alpha virt. eigenvalues --    0.24043   0.26825   0.31147   0.33641   0.35606
 Alpha virt. eigenvalues --    0.36624   0.49136   0.50085   0.51533   0.51918
 Alpha virt. eigenvalues --    0.52694   0.54366   0.54859   0.56289   0.58632
 Alpha virt. eigenvalues --    0.59511   0.60528   0.60839   0.61960   0.64213
 Alpha virt. eigenvalues --    0.64904   0.66372   0.67917   0.71341   0.73221
 Alpha virt. eigenvalues --    0.76026   0.78775   0.80394   0.81572   0.82530
 Alpha virt. eigenvalues --    0.85096   0.85772   0.86220   0.87159   0.87451
 Alpha virt. eigenvalues --    0.89517   0.90018   0.91114   0.94251   0.96484
 Alpha virt. eigenvalues --    0.97180   0.98257   0.99974   1.03153   1.11029
 Alpha virt. eigenvalues --    1.13870   1.15624   1.18264   1.20538   1.21236
 Alpha virt. eigenvalues --    1.22885   1.26676   1.31463   1.36440   1.37274
 Alpha virt. eigenvalues --    1.39132   1.40133   1.41765   1.44167   1.47403
 Alpha virt. eigenvalues --    1.48834   1.56674   1.58717   1.59829   1.65068
 Alpha virt. eigenvalues --    1.75936   1.78125   1.78954   1.81722   1.82264
 Alpha virt. eigenvalues --    1.84208   1.86469   1.86646   1.87594   1.89414
 Alpha virt. eigenvalues --    1.91037   1.93194   1.93674   1.94801   1.97712
 Alpha virt. eigenvalues --    1.98979   2.03397   2.05783   2.08262   2.08932
 Alpha virt. eigenvalues --    2.09304   2.10443   2.15565   2.17660   2.18372
 Alpha virt. eigenvalues --    2.20150   2.27264   2.27763   2.29408   2.30427
 Alpha virt. eigenvalues --    2.31707   2.35935   2.36168   2.38847   2.40976
 Alpha virt. eigenvalues --    2.41389   2.42369   2.46699   2.47156   2.48098
 Alpha virt. eigenvalues --    2.52115   2.53818   2.55818   2.60018   2.62115
 Alpha virt. eigenvalues --    2.63981   2.66891   2.70985   2.72198   2.74134
 Alpha virt. eigenvalues --    2.75982   2.78591   2.79663   2.85313   2.86542
 Alpha virt. eigenvalues --    2.90254   2.96769   2.98829   3.04730   3.07726
 Alpha virt. eigenvalues --    3.09304   3.19534   3.20564   3.24621   3.30061
 Alpha virt. eigenvalues --    3.32966   3.36343   3.38170   3.44126   3.48348
 Alpha virt. eigenvalues --    3.52111   3.53857   3.84660   4.07516   4.10268
 Alpha virt. eigenvalues --    4.15718   4.18044   4.37152   4.43715   4.48017
 Alpha virt. eigenvalues --    4.64142   4.80141   5.31408
          Condensed to atoms (all electrons):
               1          2          3          4          5          6
     1  C    4.989417  -0.003047  -0.008539  -0.000240  -0.000108   0.360944
     2  C   -0.003047   4.964322  -0.039518   0.444727  -0.040538  -0.047555
     3  C   -0.008539  -0.039518   4.962929  -0.039242   0.440628  -0.056276
     4  C   -0.000240   0.444727  -0.039242   5.069077  -0.077336   0.006336
     5  C   -0.000108  -0.040538   0.440628  -0.077336   5.081669   0.006065
     6  C    0.360944  -0.047555  -0.056276   0.006336   0.006065   4.867622
     7  C   -0.037230   0.529077   0.525715  -0.028011  -0.029051   0.356661
     8  C    0.000039  -0.011949  -0.011234   0.492580   0.488173   0.000349
     9  F   -0.000000   0.003312   0.003287  -0.044660  -0.044696   0.000000
    10  N   -0.064702   0.002952  -0.011875  -0.000148   0.000251   0.279909
    11  H    0.371843   0.002490   0.000148  -0.000074  -0.000010  -0.027547
    12  H    0.372081   0.000004   0.000086   0.000003   0.000003  -0.027959
    13  H    0.375194   0.000079   0.004944   0.000013  -0.000073  -0.031440
    14  H    0.000142   0.368391   0.006489  -0.039026   0.000231  -0.009694
    15  H   -0.000550   0.006769   0.365842   0.000191  -0.039395  -0.012389
    16  H    0.000001  -0.033653   0.000234   0.361463   0.006327  -0.000132
    17  H   -0.000000   0.000276  -0.034961   0.006394   0.362153  -0.000147
    18  H   -0.053086  -0.006069   0.007536   0.000269  -0.000161   0.388629
    19  H   -0.005335  -0.000228   0.000522   0.000004   0.000008  -0.026880
    20  H    0.007167   0.000465   0.000027  -0.000027  -0.000166  -0.034240
               7          8          9         10         11         12
     1  C   -0.037230   0.000039  -0.000000  -0.064702   0.371843   0.372081
     2  C    0.529077  -0.011949   0.003312   0.002952   0.002490   0.000004
     3  C    0.525715  -0.011234   0.003287  -0.011875   0.000148   0.000086
     4  C   -0.028011   0.492580  -0.044660  -0.000148  -0.000074   0.000003
     5  C   -0.029051   0.488173  -0.044696   0.000251  -0.000010   0.000003
     6  C    0.356661   0.000349   0.000000   0.279909  -0.027547  -0.027959
     7  C    4.806592  -0.034727  -0.000012  -0.054706  -0.003373   0.005147
     8  C   -0.034727   4.509006   0.294042   0.000007  -0.000008  -0.000000
     9  F   -0.000012   0.294042   9.097140   0.000000  -0.000000   0.000000
    10  N   -0.054706   0.000007   0.000000   6.840906   0.004679  -0.004141
    11  H   -0.003373  -0.000008  -0.000000   0.004679   0.600001  -0.028699
    12  H    0.005147  -0.000000   0.000000  -0.004141  -0.028699   0.608257
    13  H   -0.010285  -0.000016   0.000000   0.001728  -0.027771  -0.030482
    14  H   -0.041829   0.003559  -0.000024   0.000063   0.000460  -0.000044
    15  H   -0.042924   0.003522  -0.000022   0.018962   0.000079  -0.000087
    16  H    0.003747  -0.037000  -0.001219   0.000001   0.000001  -0.000000
    17  H    0.003707  -0.037400  -0.001228   0.000001   0.000000  -0.000000
    18  H   -0.061088  -0.000011  -0.000000  -0.047600  -0.000412  -0.004593
    19  H    0.005757  -0.000000   0.000000   0.329644  -0.000225   0.004405
    20  H    0.001321  -0.000010   0.000000   0.332095  -0.000277  -0.000108
              13         14         15         16         17         18
     1  C    0.375194   0.000142  -0.000550   0.000001  -0.000000  -0.053086
     2  C    0.000079   0.368391   0.006769  -0.033653   0.000276  -0.006069
     3  C    0.004944   0.006489   0.365842   0.000234  -0.034961   0.007536
     4  C    0.000013  -0.039026   0.000191   0.361463   0.006394   0.000269
     5  C   -0.000073   0.000231  -0.039395   0.006327   0.362153  -0.000161
     6  C   -0.031440  -0.009694  -0.012389  -0.000132  -0.000147   0.388629
     7  C   -0.010285  -0.041829  -0.042924   0.003747   0.003707  -0.061088
     8  C   -0.000016   0.003559   0.003522  -0.037000  -0.037400  -0.000011
     9  F    0.000000  -0.000024  -0.000022  -0.001219  -0.001228  -0.000000
    10  N    0.001728   0.000063   0.018962   0.000001   0.000001  -0.047600
    11  H   -0.027771   0.000460   0.000079   0.000001   0.000000  -0.000412
    12  H   -0.030482  -0.000044  -0.000087  -0.000000  -0.000000  -0.004593
    13  H    0.599449   0.000026   0.002033   0.000000   0.000005   0.006614
    14  H    0.000026   0.606977  -0.000169  -0.005948   0.000015   0.007681
    15  H    0.002033  -0.000169   0.597574   0.000014  -0.005631   0.000542
    16  H    0.000000  -0.005948   0.000014   0.594065  -0.000160  -0.000005
    17  H    0.000005   0.000015  -0.005631  -0.000160   0.595811   0.000003
    18  H    0.006614   0.007681   0.000542  -0.000005   0.000003   0.686643
    19  H   -0.000677  -0.000017  -0.000464  -0.000000  -0.000000  -0.003814
    20  H   -0.000094  -0.000022  -0.000652   0.000000   0.000001  -0.004478
              19         20
     1  C   -0.005335   0.007167
     2  C   -0.000228   0.000465
     3  C    0.000522   0.000027
     4  C    0.000004  -0.000027
     5  C    0.000008  -0.000166
     6  C   -0.026880  -0.034240
     7  C    0.005757   0.001321
     8  C   -0.000000  -0.000010
     9  F    0.000000   0.000000
    10  N    0.329644   0.332095
    11  H   -0.000225  -0.000277
    12  H    0.004405  -0.000108
    13  H   -0.000677  -0.000094
    14  H   -0.000017  -0.000022
    15  H   -0.000464  -0.000652
    16  H   -0.000000   0.000000
    17  H   -0.000000   0.000001
    18  H   -0.003814  -0.004478
    19  H    0.473304  -0.029136
    20  H   -0.029136   0.476241
 Mulliken charges:
               1
     1  C   -0.303992
     2  C   -0.140308
     3  C   -0.116741
     4  C   -0.152293
     5  C   -0.153976
     6  C    0.007745
     7  C    0.105514
     8  C    0.341079
     9  F   -0.305919
    10  N   -0.628027
    11  H    0.108694
    12  H    0.106126
    13  H    0.110753
    14  H    0.102740
    15  H    0.106756
    16  H    0.112263
    17  H    0.111160
    18  H    0.083404
    19  H    0.253131
    20  H    0.251891
 Sum of Mulliken charges =  -0.00000
 Mulliken charges with hydrogens summed into heavy atoms:
               1
     1  C    0.021581
     2  C   -0.037568
     3  C   -0.009984
     4  C   -0.040030
     5  C   -0.042816
     6  C    0.091149
     7  C    0.105514
     8  C    0.341079
     9  F   -0.305919
    10  N   -0.123005
 Electronic spatial extent (au):  <R**2>=           1696.7813
 Charge=             -0.0000 electrons
 Dipole moment (field-independent basis, Debye):
    X=              2.5693    Y=              1.2312    Z=             -1.0719  Tot=              3.0440
 Quadrupole moment (field-independent basis, Debye-Ang):
   XX=            -57.3112   YY=            -55.5839   ZZ=            -57.6701
   XY=              1.5626   XZ=             -2.7839   YZ=             -0.7943
 Traceless Quadrupole moment (field-independent basis, Debye-Ang):
   XX=             -0.4562   YY=              1.2712   ZZ=             -0.8150
   XY=              1.5626   XZ=             -2.7839   YZ=             -0.7943
 Octapole moment (field-independent basis, Debye-Ang**2):
  XXX=             32.5473  YYY=              2.0133  ZZZ=             -6.4428  XYY=            -16.8339
  XXY=              5.4577  XXZ=            -11.5836  XZZ=              1.2164  YZZ=             -3.7417
  YYZ=             -0.6946  XYZ=              3.6339
 Hexadecapole moment (field-independent basis, Debye-Ang**3):
 XXXX=          -1495.6991 YYYY=           -340.8412 ZZZZ=           -182.9378 XXXY=             -9.5221
 XXXZ=            -41.6778 YYYX=             10.7812 YYYZ=             -8.8506 ZZZX=            -26.0968
 ZZZY=              8.6676 XXYY=           -313.9775 XXZZ=           -273.2894 YYZZ=            -90.2997
 XXYZ=              4.1196 YYXZ=             -4.4111 ZZXY=             -6.2246
 N-N= 5.076738170043D+02 E-N=-2.101068363515D+03  KE= 4.614129742437D+02
 D1PCM: PCM CHGder 1st derivatives, ID1Alg=3 FixD1E=F DoIter=F DoCFld=F I1PDM=0.
 Calling FoFJK, ICntrl=      2127 FMM=F ISym2X=0 I1Cent= 0 IOpClX= 0 NMat=1 NMatS=1 NMatT=0.
 ***** Axes restored to original set *****
 -------------------------------------------------------------------
 Center     Atomic                   Forces (Hartrees/Bohr)
 Number     Number              X              Y              Z
 -------------------------------------------------------------------
      1        6          -0.001243720    0.002659465   -0.003556611
      2        6          -0.002495098    0.003832906    0.002660826
      3        6          -0.002886421   -0.004275570   -0.001921909
      4        6           0.003661406    0.003622537    0.001281771
      5        6           0.003084837   -0.003864682   -0.001974060
      6        6           0.000101696    0.002278774    0.003202049
      7        6          -0.002991472    0.000902483   -0.000320932
      8        6          -0.004553273    0.000051342    0.000087761
      9        9           0.008963718    0.000032852   -0.000656268
     10        7          -0.000202844   -0.004757575    0.000497924
     11        1          -0.000083623   -0.000104106    0.000126210
     12        1           0.000323812    0.000348833   -0.000172141
     13        1          -0.000397278    0.000258797    0.000051829
     14        1           0.000280662   -0.000709995   -0.000500052
     15        1           0.001399870    0.000902881    0.000070039
     16        1          -0.000472666   -0.000584782   -0.000012513
     17        1          -0.000245711    0.000167856    0.000226110
     18        1          -0.000671142   -0.000384230   -0.001093986
     19        1          -0.000966222    0.000159733    0.000896585
     20        1          -0.000606532   -0.000537517    0.001107367
 -------------------------------------------------------------------
 Cartesian Forces:  Max     0.008963718 RMS     0.002221625

 GradGradGradGradGradGradGradGradGradGradGradGradGradGradGradGradGradGrad
 Berny optimization.
 FormGI is forming the generalized inverse of G from B-inverse, IUseBI=4.
 Internal  Forces:  Max     0.008985167 RMS     0.001812862
 Search for a local minimum.
 Step number   1 out of a maximum of  108
 All quantities printed in internal units (Hartrees-Bohrs-Radians)
 Mixed Optimization -- RFO/linear search
 Second derivative matrix not updated -- first step.
 ITU=  0
     Eigenvalues ---    0.00387   0.00534   0.00849   0.01498   0.02154
     Eigenvalues ---    0.02178   0.02187   0.02213   0.02239   0.02246
     Eigenvalues ---    0.02258   0.02270   0.04477   0.04889   0.05306
     Eigenvalues ---    0.05566   0.05675   0.06188   0.15999   0.16000
     Eigenvalues ---    0.16000   0.16000   0.16000   0.16000   0.16000
     Eigenvalues ---    0.16000   0.16000   0.16891   0.18188   0.22000
     Eigenvalues ---    0.22981   0.23992   0.24966   0.25000   0.29546
     Eigenvalues ---    0.30603   0.33065   0.34058   0.34230   0.34335
     Eigenvalues ---    0.35005   0.35196   0.35310   0.35342   0.36506
     Eigenvalues ---    0.42706   0.42877   0.44864   0.44924   0.46524
     Eigenvalues ---    0.47256   0.47293   0.47875   0.56105
 RFO step:  Lambda=-8.83228788D-04 EMin= 3.86612531D-03
 Linear search not attempted -- first point.
 Iteration  1 RMS(Cart)=  0.01874313 RMS(Int)=  0.00013200
 Iteration  2 RMS(Cart)=  0.00016044 RMS(Int)=  0.00002150
 Iteration  3 RMS(Cart)=  0.00000002 RMS(Int)=  0.00002150
 Variable       Old X    -DE/DX   Delta X   Delta X   Delta X     New X
                                 (Linear)    (Quad)   (Total)
    R1        2.88878   0.00467   0.00000   0.01577   0.01577   2.90455
    R2        2.06769  -0.00015   0.00000  -0.00043  -0.00043   2.06726
    R3        2.07232  -0.00032   0.00000  -0.00094  -0.00094   2.07138
    R4        2.06943  -0.00030   0.00000  -0.00086  -0.00086   2.06857
    R5        2.62853   0.00522   0.00000   0.01099   0.01099   2.63952
    R6        2.63692   0.00458   0.00000   0.00988   0.00988   2.64681
    R7        2.05667  -0.00090   0.00000  -0.00257  -0.00257   2.05410
    R8        2.62554   0.00528   0.00000   0.01117   0.01117   2.63672
    R9        2.63869   0.00583   0.00000   0.01268   0.01268   2.65137
   R10        2.05357  -0.00148   0.00000  -0.00419  -0.00419   2.04938
   R11        2.61873   0.00405   0.00000   0.00832   0.00832   2.62705
   R12        2.05175  -0.00071   0.00000  -0.00200  -0.00200   2.04976
   R13        2.62067   0.00411   0.00000   0.00853   0.00852   2.62919
   R14        2.05123  -0.00034   0.00000  -0.00097  -0.00097   2.05026
   R15        2.86778   0.00379   0.00000   0.01236   0.01236   2.88013
   R16        2.76597   0.00574   0.00000   0.01570   0.01570   2.78167
   R17        2.08938  -0.00089   0.00000  -0.00267  -0.00267   2.08671
   R18        2.54163   0.00899   0.00000   0.01599   0.01599   2.55762
   R19        1.92064   0.00103   0.00000   0.00229   0.00229   1.92293
   R20        1.92134   0.00096   0.00000   0.00214   0.00214   1.92349
    A1        1.93826  -0.00026   0.00000  -0.00215  -0.00215   1.93612
    A2        1.93215   0.00031   0.00000   0.00163   0.00163   1.93378
    A3        1.91759   0.00048   0.00000   0.00381   0.00380   1.92140
    A4        1.88878  -0.00020   0.00000  -0.00284  -0.00284   1.88594
    A5        1.89379  -0.00005   0.00000   0.00024   0.00024   1.89402
    A6        1.89212  -0.00029   0.00000  -0.00079  -0.00079   1.89132
    A7        2.11470   0.00052   0.00000   0.00213   0.00213   2.11683
    A8        2.08039  -0.00013   0.00000  -0.00025  -0.00026   2.08013
    A9        2.08809  -0.00039   0.00000  -0.00187  -0.00188   2.08622
   A10        2.11146   0.00049   0.00000   0.00234   0.00234   2.11380
   A11        2.10170  -0.00098   0.00000  -0.00576  -0.00576   2.09594
   A12        2.06996   0.00049   0.00000   0.00341   0.00340   2.07336
   A13        2.06717   0.00041   0.00000   0.00137   0.00136   2.06853
   A14        2.12737  -0.00031   0.00000  -0.00136  -0.00137   2.12600
   A15        2.08865  -0.00010   0.00000  -0.00001  -0.00002   2.08863
   A16        2.07088   0.00012   0.00000   0.00042   0.00041   2.07129
   A17        2.12686  -0.00017   0.00000  -0.00089  -0.00089   2.12597
   A18        2.08545   0.00005   0.00000   0.00048   0.00048   2.08592
   A19        1.93394  -0.00098   0.00000  -0.00138  -0.00150   1.93244
   A20        1.88715   0.00196   0.00000   0.01499   0.01497   1.90212
   A21        1.88711  -0.00093   0.00000  -0.01357  -0.01356   1.87355
   A22        1.92239   0.00003   0.00000   0.00669   0.00663   1.92902
   A23        1.86762   0.00056   0.00000  -0.00057  -0.00059   1.86702
   A24        1.96586  -0.00072   0.00000  -0.00685  -0.00679   1.95907
   A25        2.07300  -0.00124   0.00000  -0.00468  -0.00469   2.06831
   A26        2.10439  -0.00073   0.00000  -0.00282  -0.00284   2.10155
   A27        2.10468   0.00197   0.00000   0.00796   0.00795   2.11263
   A28        2.12916  -0.00030   0.00000  -0.00157  -0.00158   2.12759
   A29        2.07851  -0.00012   0.00000  -0.00030  -0.00030   2.07822
   A30        2.07551   0.00042   0.00000   0.00186   0.00186   2.07736
   A31        1.91122  -0.00033   0.00000  -0.00455  -0.00455   1.90666
   A32        1.91187   0.00081   0.00000   0.00256   0.00256   1.91443
   A33        1.86206  -0.00071   0.00000  -0.00967  -0.00968   1.85238
    D1       -1.04610   0.00036   0.00000   0.02488   0.02487  -1.02123
    D2        3.12872  -0.00033   0.00000   0.00793   0.00791   3.13663
    D3        0.99549  -0.00007   0.00000   0.01537   0.01540   1.01088
    D4        3.13848   0.00058   0.00000   0.02879   0.02878  -3.11592
    D5        1.03011  -0.00011   0.00000   0.01184   0.01182   1.04193
    D6       -1.10312   0.00015   0.00000   0.01928   0.01931  -1.08381
    D7        1.04917   0.00043   0.00000   0.02629   0.02628   1.07545
    D8       -1.05920  -0.00026   0.00000   0.00934   0.00932  -1.04988
    D9        3.09076   0.00001   0.00000   0.01678   0.01681   3.10756
   D10        0.00024  -0.00010   0.00000  -0.00451  -0.00450  -0.00427
   D11        3.14109   0.00009   0.00000   0.00361   0.00361  -3.13848
   D12        3.13880  -0.00010   0.00000  -0.00395  -0.00394   3.13486
   D13       -0.00353   0.00009   0.00000   0.00417   0.00417   0.00064
   D14        0.00177   0.00005   0.00000   0.00299   0.00298   0.00475
   D15       -3.08948  -0.00018   0.00000  -0.00778  -0.00774  -3.09723
   D16       -3.13679   0.00004   0.00000   0.00243   0.00241  -3.13437
   D17        0.05515  -0.00018   0.00000  -0.00834  -0.00831   0.04684
   D18        0.00176  -0.00016   0.00000  -0.00607  -0.00607  -0.00430
   D19        3.14140  -0.00010   0.00000  -0.00426  -0.00426   3.13714
   D20       -3.12712  -0.00013   0.00000  -0.00465  -0.00465  -3.13177
   D21        0.01251  -0.00008   0.00000  -0.00284  -0.00284   0.00967
   D22       -0.00278   0.00008   0.00000   0.00240   0.00241  -0.00038
   D23        3.08846   0.00023   0.00000   0.01286   0.01288   3.10133
   D24        3.12633   0.00005   0.00000   0.00094   0.00094   3.12727
   D25       -0.06561   0.00019   0.00000   0.01140   0.01141  -0.05421
   D26       -0.00131   0.00002   0.00000   0.00068   0.00068  -0.00063
   D27       -3.14074   0.00013   0.00000   0.00545   0.00544  -3.13531
   D28        3.14100  -0.00016   0.00000  -0.00725  -0.00725   3.13375
   D29        0.00157  -0.00006   0.00000  -0.00249  -0.00249  -0.00093
   D30        0.00032   0.00010   0.00000   0.00453   0.00452   0.00485
   D31        3.13976  -0.00000   0.00000  -0.00022  -0.00023   3.13953
   D32       -3.13936   0.00005   0.00000   0.00277   0.00276  -3.13660
   D33        0.00008  -0.00005   0.00000  -0.00199  -0.00199  -0.00192
   D34        1.68100  -0.00099   0.00000  -0.00941  -0.00939   1.67160
   D35       -1.40933  -0.00113   0.00000  -0.02001  -0.02002  -1.42935
   D36       -2.51483   0.00084   0.00000   0.01270   0.01270  -2.50213
   D37        0.67803   0.00070   0.00000   0.00210   0.00208   0.68010
   D38       -0.37254   0.00033   0.00000   0.00797   0.00799  -0.36455
   D39        2.82032   0.00019   0.00000  -0.00263  -0.00263   2.81768
   D40       -1.04076  -0.00020   0.00000  -0.00109  -0.00104  -1.04180
   D41       -3.07720   0.00039   0.00000   0.01173   0.01177  -3.06543
   D42        3.12688  -0.00024   0.00000  -0.01285  -0.01290   3.11398
   D43        1.09045   0.00034   0.00000  -0.00004  -0.00009   1.09036
   D44        1.04342  -0.00050   0.00000  -0.01222  -0.01220   1.03121
   D45       -0.99302   0.00008   0.00000   0.00060   0.00060  -0.99242
         Item               Value     Threshold  Converged?
 Maximum Force            0.008985     0.000450     NO
 RMS     Force            0.001813     0.000300     NO
 Maximum Displacement     0.075834     0.001800     NO
 RMS     Displacement     0.018708     0.001200     NO
 Predicted change in Energy=-4.451966D-04
 GradGradGradGradGradGradGradGradGradGradGradGradGradGradGradGradGradGrad

                          Input orientation:
 ---------------------------------------------------------------------
 Center     Atomic      Atomic             Coordinates (Angstroms)
 Number     Number       Type             X           Y           Z
 ---------------------------------------------------------------------
      1          6           0       -2.823369    0.684839   -1.029734
      2          6           0        0.069392    1.132149    0.707590
      3          6           0       -0.047960   -0.980296   -0.445586
      4          6           0        1.461543    1.130953    0.594054
      5          6           0        1.342022   -1.003280   -0.564978
      6          6           0       -2.224450    0.134033    0.274241
      7          6           0       -0.703452    0.084756    0.190442
      8          6           0        2.074555    0.058377   -0.043429
      9          9           0        3.423431    0.042140   -0.153201
     10          7           0       -2.771475   -1.209854    0.522238
     11          1           0       -2.440985    1.687447   -1.242512
     12          1           0       -3.915686    0.745268   -0.961262
     13          1           0       -2.566077    0.029466   -1.867901
     14          1           0       -0.420720    1.962387    1.209607
     15          1           0       -0.640804   -1.800276   -0.835809
     16          1           0        2.068492    1.936132    0.993853
     17          1           0        1.860786   -1.822976   -1.050883
     18          1           0       -2.480041    0.844645    1.079874
     19          1           0       -3.784276   -1.150470    0.600693
     20          1           0       -2.438056   -1.555580    1.419654
 ---------------------------------------------------------------------
                    Distance matrix (angstroms):
                    1          2          3          4          5
     1  C    0.000000
     2  C    3.403887   0.000000
     3  C    3.288890   2.409566   0.000000
     4  C    4.603931   1.396774   2.795858   0.000000
     5  C    4.518432   2.792682   1.395290   2.431582   0.000000
     6  C    1.537023   2.538846   2.548919   3.831798   3.836339
     7  C    2.518526   1.400629   1.403046   2.438162   2.436893
     8  C    5.035366   2.395348   2.397007   1.390175   1.391306
     9  F    6.340654   3.630242   3.630623   2.364933   2.365318
    10  N    2.449728   3.686443   2.899467   4.837662   4.259762
    11  H    1.093945   3.226956   3.671309   4.348837   4.691504
    12  H    1.096128   4.337694   4.266474   5.610914   5.554994
    13  H    1.094640   3.846396   3.063252   4.847290   4.247048
    14  H    3.524132   1.086981   3.396763   2.147813   3.879639
    15  H    3.313154   3.389037   1.084484   3.880267   2.154101
    16  H    5.439756   2.173646   3.880323   1.084684   3.405563
    17  H    5.313275   3.877381   2.172511   3.404542   1.084952
    18  H    2.143328   2.592463   3.401831   3.981719   4.552860
    19  H    2.636283   4.480238   3.883776   5.720451   5.259219
    20  H    3.341772   3.744091   3.085876   4.806865   4.304972
                    6          7          8          9         10
     6  C    0.000000
     7  C    1.524102   0.000000
     8  C    4.311390   2.787959   0.000000
     9  F    5.664779   4.141385   1.353433   0.000000
    10  N    1.471995   2.462280   5.041070   6.356144   0.000000
    11  H    2.181862   2.764235   4.947905   6.187488   3.408507
    12  H    2.181824   3.475794   6.098953   7.416873   2.707858
    13  H    2.171731   2.776545   4.986481   6.230134   2.700160
    14  H    2.733356   2.155026   3.379608   4.508003   4.007698
    15  H    2.735269   2.147198   3.384617   4.514251   2.594734
    16  H    4.711132   3.428810   2.145217   2.595919   5.791799
    17  H    4.719639   3.428651   2.144795   2.593521   4.930362
    18  H    1.104238   2.127155   4.756509   6.084035   2.148688
    19  H    2.046845   3.344483   6.016819   7.344503   1.017570
    20  H    2.052410   2.685240   5.010900   6.275637   1.017865
                   11         12         13         14         15
    11  H    0.000000
    12  H    1.772441   0.000000
    13  H    1.776418   1.776461   0.000000
    14  H    3.189036   4.290553   4.220166   0.000000
    15  H    3.945918   4.149745   2.849534   4.288333   0.000000
    16  H    5.039698   6.407107   5.770983   2.498683   4.964745
    17  H    5.555630   6.322305   4.867872   4.964278   2.510921
    18  H    2.470893   2.497436   3.059623   2.346697   3.748098
    19  H    3.640825   2.459836   2.995031   4.623221   3.516703
    20  H    4.195755   3.625748   3.651955   4.060771   2.894322
                   16         17         18         19         20
    16  H    0.000000
    17  H    4.284271   0.000000
    18  H    4.678451   5.522600   0.000000
    19  H    6.628468   5.920025   2.431281   0.000000
    20  H    5.716847   4.965390   2.424519   1.626997   0.000000
 Stoichiometry    C8H10FN
 Framework group  C1[X(C8H10FN)]
 Deg. of freedom    54
 Full point group                 C1      NOp   1
 Largest Abelian subgroup         C1      NOp   1
 Largest concise Abelian subgroup C1      NOp   1
                         Standard orientation:
 ---------------------------------------------------------------------
 Center     Atomic      Atomic             Coordinates (Angstroms)
 Number     Number       Type             X           Y           Z
 ---------------------------------------------------------------------
      1          6           0        2.679670    0.516113    1.187138
      2          6           0       -0.244608    1.267531   -0.384618
      3          6           0       -0.014297   -1.067835    0.162224
      4          6           0       -1.634107    1.166891   -0.283914
      5          6           0       -1.400508   -1.190899    0.262755
      6          6           0        2.098970    0.305055   -0.220229
      7          6           0        0.582940    0.159702   -0.161813
      8          6           0       -2.188533   -0.066166    0.039768
      9          9           0       -3.534096   -0.178123    0.133081
     10          7           0        2.709910   -0.894681   -0.815338
     11          1           0        2.249777    1.405031    1.658023
     12          1           0        3.767118    0.646814    1.143896
     13          1           0        2.461389   -0.351475    1.817916
     14          1           0        0.200071    2.225057   -0.643328
     15          1           0        0.621279   -1.931819    0.322473
     16          1           0       -2.283110    2.018493   -0.457433
     17          1           0       -1.874446   -2.135393    0.508588
     18          1           0        2.313063    1.217015   -0.804893
     19          1           0        3.717919   -0.766266   -0.868958
     20          1           0        2.387282   -1.003934   -1.774517
 ---------------------------------------------------------------------
 Rotational constants (GHZ):           3.3645388           0.7229048           0.6644117
 Standard basis: 6-31G(d,p) (6D, 7F)
 There are   200 symmetry adapted cartesian basis functions of A   symmetry.
 There are   200 symmetry adapted basis functions of A   symmetry.
   200 basis functions,   350 primitive gaussians,   200 cartesian basis functions
    37 alpha electrons       37 beta electrons
       nuclear repulsion energy       505.3430207082 Hartrees.
 NAtoms=   20 NActive=   20 NUniq=   20 SFac= 1.00D+00 NAtFMM=   60 NAOKFM=F Big=F
 Integral buffers will be    131072 words long.
 Raffenetti 2 integral format.
 Two-electron integral symmetry is turned on.
 Nuclear repulsion after empirical dispersion term =      505.3282372254 Hartrees.
 ------------------------------------------------------------------------------
 Polarizable Continuum Model (PCM)
 =================================
 Model                : PCM.
 Atomic radii         : UFF (Universal Force Field).
 Polarization charges : Total charges.
 Charge compensation  : None.
 Solution method      : On-the-fly selection.
 Cavity type          : Scaled VdW (van der Waals Surface) (Alpha=1.100).
 Cavity algorithm     : GePol (No added spheres)
                        Default sphere list used, NSphG=   20.
                        Lebedev-Laikov grids with approx.  5.0 points / Ang**2.
                        Smoothing algorithm: York/Karplus (Gamma=1.0000).
                        Polarization charges: spherical gaussians, with
                                              point-specific exponents (IZeta= 3).
                        Self-potential: point-specific (ISelfS= 7).
                        Self-field    : sphere-specific E.n sum rule (ISelfD= 2).
 1st derivatives      : Analytical E(r).r(x)/FMM algorithm (CHGder, D1EAlg=3).
                        Cavity 1st derivative terms included.
 Solvent              : Acetonitrile, Eps=  35.688000 Eps(inf)=   1.806874
 ------------------------------------------------------------------------------
 Spheres list:
 ISph  on   Nord     Re0    Alpha      Xe            Ye            Ze
    1   C      1    1.9255  1.100      2.679670      0.516113      1.187138
    2   C      2    1.9255  1.100     -0.244608      1.267531     -0.384618
    3   C      3    1.9255  1.100     -0.014297     -1.067835      0.162224
    4   C      4    1.9255  1.100     -1.634107      1.166891     -0.283914
    5   C      5    1.9255  1.100     -1.400508     -1.190899      0.262755
    6   C      6    1.9255  1.100      2.098970      0.305055     -0.220229
    7   C      7    1.9255  1.100      0.582940      0.159702     -0.161813
    8   C      8    1.9255  1.100     -2.188533     -0.066166      0.039768
    9   F      9    1.6820  1.100     -3.534096     -0.178123      0.133081
   10   N     10    1.8300  1.100      2.709910     -0.894681     -0.815338
   11   H     11    1.4430  1.100      2.249777      1.405031      1.658023
   12   H     12    1.4430  1.100      3.767118      0.646814      1.143896
   13   H     13    1.4430  1.100      2.461389     -0.351475      1.817916
   14   H     14    1.4430  1.100      0.200071      2.225057     -0.643328
   15   H     15    1.4430  1.100      0.621279     -1.931819      0.322473
   16   H     16    1.4430  1.100     -2.283110      2.018493     -0.457433
   17   H     17    1.4430  1.100     -1.874446     -2.135393      0.508588
   18   H     18    1.4430  1.100      2.313063      1.217015     -0.804893
   19   H     19    1.4430  1.100      3.717919     -0.766266     -0.868958
   20   H     20    1.4430  1.100      2.387282     -1.003934     -1.774517
 ------------------------------------------------------------------------------
 One-electron integrals computed using PRISM.
 NBasis=   200 RedAO= T EigKep=  4.49D-04  NBF=   200
 NBsUse=   200 1.00D-06 EigRej= -1.00D+00 NBFU=   200
 Initial guess from the checkpoint file:  "IH4_5_aniccx.chk"
 B after Tr=     0.000000    0.000000   -0.000000
         Rot=    0.999980    0.006227    0.000094    0.000664 Ang=   0.72 deg.
 ExpMin= 1.61D-01 ExpMax= 7.00D+03 ExpMxC= 1.05D+03 IAcc=2 IRadAn=         4 AccDes= 0.00D+00
 Harris functional with IExCor=  402 and IRadAn=       4 diagonalized for initial guess.
 HarFok:  IExCor=  402 AccDes= 0.00D+00 IRadAn=         4 IDoV= 1 UseB2=F ITyADJ=14
 ICtDFT=  3500011 ScaDFX=  1.000000  1.000000  1.000000  1.000000
 FoFCou: FMM=F IPFlag=           0 FMFlag=      100000 FMFlg1=           0
         NFxFlg=           0 DoJE=T BraDBF=F KetDBF=T FulRan=T
         wScrn=  0.000000 ICntrl=       500 IOpCl=  0 I1Cent=   200000004 NGrid=           0
         NMat0=    1 NMatS0=      1 NMatT0=    0 NMatD0=    1 NMtDS0=    0 NMtDT0=    0
 Petite list used in FoFCou.
 Requested convergence on RMS density matrix=1.00D-08 within 128 cycles.
 Requested convergence on MAX density matrix=1.00D-06.
 Requested convergence on             energy=1.00D-06.
 No special actions if energy rises.
 Inv3:  Mode=1 IEnd=     7728075.
 Iteration    1 A*A^-1 deviation from unit magnitude is 3.44D-15 for    558.
 Iteration    1 A*A^-1 deviation from orthogonality  is 1.44D-15 for   1273    852.
 Iteration    1 A^-1*A deviation from unit magnitude is 3.22D-15 for   1096.
 Iteration    1 A^-1*A deviation from orthogonality  is 2.33D-15 for   1136    392.
 Error on total polarization charges =  0.00742
 SCF Done:  E(RB3LYP) =  -465.494876041     A.U. after    9 cycles
            NFock=  9  Conv=0.78D-08     -V/T= 2.0092
 D1PCM: PCM CHGder 1st derivatives, ID1Alg=3 FixD1E=F DoIter=F DoCFld=F I1PDM=0.
 Calling FoFJK, ICntrl=      2127 FMM=F ISym2X=0 I1Cent= 0 IOpClX= 0 NMat=1 NMatS=1 NMatT=0.
 ***** Axes restored to original set *****
 -------------------------------------------------------------------
 Center     Atomic                   Forces (Hartrees/Bohr)
 Number     Number              X              Y              Z
 -------------------------------------------------------------------
      1        6          -0.000240240   -0.000636509   -0.000523557
      2        6           0.000058012   -0.000150845   -0.000112791
      3        6          -0.000423981    0.000626730    0.000618313
      4        6           0.000512578   -0.000270676   -0.000237577
      5        6           0.000612849    0.000265233   -0.000052307
      6        6           0.000689057    0.001600052    0.001485589
      7        6          -0.000227241   -0.000769926   -0.000426293
      8        6          -0.003566750   -0.000037335    0.000408466
      9        9           0.001646335    0.000043573   -0.000162157
     10        7           0.000808257   -0.000945480   -0.001580293
     11        1           0.000290916   -0.000192532    0.000462760
     12        1           0.000072094   -0.000096899    0.000208519
     13        1          -0.000037781   -0.000034171   -0.000056397
     14        1           0.000117659   -0.000002108   -0.000058103
     15        1           0.000189713   -0.000202638   -0.000197516
     16        1          -0.000173789    0.000029803    0.000063688
     17        1          -0.000236226   -0.000035220    0.000020924
     18        1          -0.000024866   -0.000241265   -0.000237409
     19        1          -0.000239337    0.000467087    0.000133150
     20        1           0.000172740    0.000583126    0.000242991
 -------------------------------------------------------------------
 Cartesian Forces:  Max     0.003566750 RMS     0.000704460

 GradGradGradGradGradGradGradGradGradGradGradGradGradGradGradGradGradGrad
 Berny optimization.
 Using GEDIIS/GDIIS optimizer.
 FormGI is forming the generalized inverse of G from B-inverse, IUseBI=4.
 Internal  Forces:  Max     0.001653498 RMS     0.000386917
 Search for a local minimum.
 Step number   2 out of a maximum of  108
 All quantities printed in internal units (Hartrees-Bohrs-Radians)
 Mixed Optimization -- En-DIIS/RFO-DIIS
 Update second derivatives using D2CorX and points    1    2
 DE= -3.99D-04 DEPred=-4.45D-04 R= 8.97D-01
 TightC=F SS=  1.41D+00  RLast= 8.74D-02 DXNew= 5.0454D-01 2.6205D-01
 Trust test= 8.97D-01 RLast= 8.74D-02 DXMaxT set to 3.00D-01
 ITU=  1  0
 Use linear search instead of GDIIS.
     Eigenvalues ---    0.00385   0.00533   0.00850   0.01491   0.02151
     Eigenvalues ---    0.02178   0.02186   0.02214   0.02238   0.02246
     Eigenvalues ---    0.02259   0.02271   0.04399   0.05098   0.05359
     Eigenvalues ---    0.05564   0.05643   0.06196   0.15643   0.15999
     Eigenvalues ---    0.16000   0.16000   0.16000   0.16000   0.16000
     Eigenvalues ---    0.16000   0.16217   0.17012   0.18538   0.22000
     Eigenvalues ---    0.22925   0.24198   0.24994   0.25076   0.29541
     Eigenvalues ---    0.31742   0.32981   0.34052   0.34233   0.34324
     Eigenvalues ---    0.34982   0.35219   0.35296   0.35337   0.37048
     Eigenvalues ---    0.42724   0.42818   0.44765   0.44886   0.46532
     Eigenvalues ---    0.47241   0.47857   0.49970   0.53846
 RFO step:  Lambda=-6.25742198D-05 EMin= 3.85197947D-03
 Quartic linear search produced a step of -0.08622.
 Iteration  1 RMS(Cart)=  0.00578443 RMS(Int)=  0.00002001
 Iteration  2 RMS(Cart)=  0.00002415 RMS(Int)=  0.00000836
 Iteration  3 RMS(Cart)=  0.00000000 RMS(Int)=  0.00000836
 Variable       Old X    -DE/DX   Delta X   Delta X   Delta X     New X
                                 (Linear)    (Quad)   (Total)
    R1        2.90455  -0.00045  -0.00136   0.00108  -0.00028   2.90427
    R2        2.06726  -0.00016   0.00004  -0.00050  -0.00047   2.06679
    R3        2.07138  -0.00006   0.00008  -0.00032  -0.00024   2.07114
    R4        2.06857   0.00006   0.00007   0.00001   0.00009   2.06866
    R5        2.63952  -0.00064  -0.00095   0.00050  -0.00045   2.63907
    R6        2.64681  -0.00035  -0.00085   0.00088   0.00003   2.64683
    R7        2.05410  -0.00008   0.00022  -0.00062  -0.00040   2.05370
    R8        2.63672  -0.00056  -0.00096   0.00066  -0.00031   2.63641
    R9        2.65137  -0.00081  -0.00109   0.00040  -0.00069   2.65068
   R10        2.04938   0.00012   0.00036  -0.00034   0.00002   2.04940
   R11        2.62705  -0.00079  -0.00072  -0.00020  -0.00091   2.62614
   R12        2.04976  -0.00005   0.00017  -0.00045  -0.00028   2.04948
   R13        2.62919  -0.00074  -0.00073  -0.00009  -0.00082   2.62836
   R14        2.05026  -0.00009   0.00008  -0.00040  -0.00031   2.04995
   R15        2.88013  -0.00146  -0.00107  -0.00243  -0.00349   2.87664
   R16        2.78167  -0.00058  -0.00135   0.00101  -0.00035   2.78132
   R17        2.08671  -0.00032   0.00023  -0.00131  -0.00108   2.08563
   R18        2.55762   0.00165  -0.00138   0.00520   0.00382   2.56144
   R19        1.92293   0.00028  -0.00020   0.00092   0.00073   1.92365
   R20        1.92349   0.00007  -0.00018   0.00049   0.00030   1.92379
    A1        1.93612  -0.00077   0.00019  -0.00515  -0.00497   1.93115
    A2        1.93378  -0.00021  -0.00014  -0.00089  -0.00104   1.93274
    A3        1.92140   0.00024  -0.00033   0.00232   0.00199   1.92339
    A4        1.88594   0.00044   0.00024   0.00141   0.00164   1.88759
    A5        1.89402   0.00026  -0.00002   0.00143   0.00141   1.89543
    A6        1.89132   0.00007   0.00007   0.00105   0.00112   1.89244
    A7        2.11683  -0.00020  -0.00018  -0.00034  -0.00053   2.11631
    A8        2.08013   0.00000   0.00002  -0.00027  -0.00024   2.07989
    A9        2.08622   0.00020   0.00016   0.00061   0.00077   2.08699
   A10        2.11380  -0.00017  -0.00020  -0.00027  -0.00047   2.11333
   A11        2.09594  -0.00023   0.00050  -0.00239  -0.00189   2.09404
   A12        2.07336   0.00041  -0.00029   0.00268   0.00238   2.07575
   A13        2.06853  -0.00038  -0.00012  -0.00125  -0.00137   2.06716
   A14        2.12600   0.00001   0.00012  -0.00050  -0.00039   2.12561
   A15        2.08863   0.00037   0.00000   0.00175   0.00175   2.09038
   A16        2.07129  -0.00034  -0.00004  -0.00131  -0.00134   2.06995
   A17        2.12597  -0.00006   0.00008  -0.00075  -0.00068   2.12530
   A18        2.08592   0.00040  -0.00004   0.00206   0.00202   2.08794
   A19        1.93244   0.00026   0.00013  -0.00121  -0.00109   1.93135
   A20        1.90212  -0.00031  -0.00129  -0.00191  -0.00321   1.89891
   A21        1.87355   0.00006   0.00117   0.00087   0.00204   1.87559
   A22        1.92902  -0.00048  -0.00057  -0.00451  -0.00509   1.92393
   A23        1.86702   0.00019   0.00005   0.00424   0.00430   1.87133
   A24        1.95907   0.00032   0.00059   0.00274   0.00333   1.96240
   A25        2.06831   0.00039   0.00040   0.00081   0.00122   2.06953
   A26        2.10155  -0.00004   0.00024  -0.00064  -0.00039   2.10115
   A27        2.11263  -0.00035  -0.00069  -0.00010  -0.00078   2.11185
   A28        2.12759   0.00070   0.00014   0.00236   0.00249   2.13008
   A29        2.07822  -0.00040   0.00003  -0.00152  -0.00150   2.07672
   A30        2.07736  -0.00030  -0.00016  -0.00083  -0.00099   2.07637
   A31        1.90666  -0.00065   0.00039  -0.00622  -0.00585   1.90082
   A32        1.91443  -0.00101  -0.00022  -0.00713  -0.00738   1.90704
   A33        1.85238   0.00040   0.00083  -0.00309  -0.00232   1.85006
    D1       -1.02123  -0.00036  -0.00214   0.00258   0.00044  -1.02079
    D2        3.13663   0.00029  -0.00068   0.01023   0.00955  -3.13701
    D3        1.01088   0.00005  -0.00133   0.00751   0.00619   1.01707
    D4       -3.11592  -0.00026  -0.00248   0.00480   0.00232  -3.11360
    D5        1.04193   0.00039  -0.00102   0.01245   0.01143   1.05337
    D6       -1.08381   0.00014  -0.00166   0.00973   0.00807  -1.07574
    D7        1.07545  -0.00037  -0.00227   0.00256   0.00030   1.07575
    D8       -1.04988   0.00027  -0.00080   0.01021   0.00941  -1.04047
    D9        3.10756   0.00003  -0.00145   0.00749   0.00604   3.11361
   D10       -0.00427   0.00001   0.00039  -0.00046  -0.00007  -0.00434
   D11       -3.13848   0.00001  -0.00031   0.00078   0.00047  -3.13802
   D12        3.13486   0.00002   0.00034   0.00021   0.00054   3.13541
   D13        0.00064   0.00002  -0.00036   0.00144   0.00108   0.00173
   D14        0.00475  -0.00001  -0.00026   0.00042   0.00016   0.00491
   D15       -3.09723  -0.00001   0.00067  -0.00178  -0.00112  -3.09835
   D16       -3.13437  -0.00002  -0.00021  -0.00025  -0.00045  -3.13483
   D17        0.04684  -0.00002   0.00072  -0.00245  -0.00174   0.04510
   D18       -0.00430   0.00004   0.00052   0.00058   0.00110  -0.00320
   D19        3.13714   0.00001   0.00037  -0.00004   0.00032   3.13746
   D20       -3.13177  -0.00001   0.00040  -0.00117  -0.00077  -3.13254
   D21        0.00967  -0.00003   0.00024  -0.00180  -0.00155   0.00813
   D22       -0.00038  -0.00002  -0.00021  -0.00047  -0.00068  -0.00106
   D23        3.10133  -0.00001  -0.00111   0.00173   0.00062   3.10195
   D24        3.12727   0.00003  -0.00008   0.00122   0.00114   3.12840
   D25       -0.05421   0.00003  -0.00098   0.00342   0.00244  -0.05177
   D26       -0.00063   0.00001  -0.00006   0.00057   0.00051  -0.00012
   D27       -3.13531  -0.00004  -0.00047  -0.00059  -0.00106  -3.13637
   D28        3.13375   0.00001   0.00063  -0.00065  -0.00003   3.13373
   D29       -0.00093  -0.00004   0.00021  -0.00181  -0.00159  -0.00252
   D30        0.00485  -0.00003  -0.00039  -0.00063  -0.00102   0.00383
   D31        3.13953   0.00001   0.00002   0.00053   0.00055   3.14008
   D32       -3.13660  -0.00001  -0.00024  -0.00002  -0.00025  -3.13686
   D33       -0.00192   0.00004   0.00017   0.00114   0.00131  -0.00061
   D34        1.67160   0.00025   0.00081  -0.00431  -0.00350   1.66810
   D35       -1.42935   0.00023   0.00173  -0.00658  -0.00486  -1.43421
   D36       -2.50213  -0.00030  -0.00109  -0.01050  -0.01159  -2.51372
   D37        0.68010  -0.00031  -0.00018  -0.01278  -0.01295   0.66715
   D38       -0.36455  -0.00007  -0.00069  -0.00715  -0.00784  -0.37239
   D39        2.81768  -0.00009   0.00023  -0.00942  -0.00920   2.80849
   D40       -1.04180  -0.00031   0.00009  -0.00739  -0.00728  -1.04908
   D41       -3.06543   0.00015  -0.00101   0.00387   0.00285  -3.06258
   D42        3.11398  -0.00012   0.00111  -0.00175  -0.00063   3.11335
   D43        1.09036   0.00034   0.00001   0.00951   0.00949   1.09985
   D44        1.03121  -0.00024   0.00105  -0.00587  -0.00480   1.02641
   D45       -0.99242   0.00022  -0.00005   0.00539   0.00532  -0.98709
         Item               Value     Threshold  Converged?
 Maximum Force            0.001653     0.000450     NO
 RMS     Force            0.000387     0.000300     NO
 Maximum Displacement     0.018054     0.001800     NO
 RMS     Displacement     0.005786     0.001200     NO
 Predicted change in Energy=-3.487023D-05
 GradGradGradGradGradGradGradGradGradGradGradGradGradGradGradGradGradGrad

                          Input orientation:
 ---------------------------------------------------------------------
 Center     Atomic      Atomic             Coordinates (Angstroms)
 Number     Number       Type             X           Y           Z
 ---------------------------------------------------------------------
      1          6           0       -2.822280    0.686819   -1.027213
      2          6           0        0.067964    1.134891    0.704963
      3          6           0       -0.050768   -0.981946   -0.441188
      4          6           0        1.459853    1.132843    0.591144
      5          6           0        1.338959   -1.005776   -0.561484
      6          6           0       -2.223826    0.134858    0.276310
      7          6           0       -0.704746    0.085692    0.191248
      8          6           0        2.070450    0.057471   -0.042882
      9          9           0        3.421239    0.041133   -0.154068
     10          7           0       -2.764303   -1.213564    0.512684
     11          1           0       -2.436208    1.688822   -1.234853
     12          1           0       -3.914231    0.749443   -0.956940
     13          1           0       -2.566480    0.033081   -1.867171
     14          1           0       -0.421466    1.967203    1.203746
     15          1           0       -0.642539   -1.803346   -0.830078
     16          1           0        2.066766    1.939024    0.988573
     17          1           0        1.856395   -1.827505   -1.044992
     18          1           0       -2.483133    0.840260    1.084550
     19          1           0       -3.777318   -1.153539    0.592847
     20          1           0       -2.431459   -1.556003    1.411753
 ---------------------------------------------------------------------
                    Distance matrix (angstroms):
                    1          2          3          4          5
     1  C    0.000000
     2  C    3.399222   0.000000
     3  C    3.287777   2.410136   0.000000
     4  C    4.599421   1.396537   2.796429   0.000000
     5  C    4.516380   2.793165   1.395127   2.432459   0.000000
     6  C    1.536874   2.536948   2.546417   3.829436   3.833586
     7  C    2.515939   1.400643   1.402681   2.437608   2.436111
     8  C    5.030287   2.393753   2.395537   1.389691   1.390870
     9  F    6.337256   3.630247   3.630972   2.365207   2.365987
    10  N    2.446651   3.684283   2.885618   4.832729   4.246619
    11  H    1.093698   3.215681   3.667865   4.338510   4.686809
    12  H    1.096001   4.332247   4.264980   5.605741   5.552764
    13  H    1.094686   3.843196   3.064721   4.843981   4.246940
    14  H    3.518589   1.086770   3.397161   2.147277   3.879914
    15  H    3.315276   3.390339   1.084494   3.880867   2.152811
    16  H    5.434536   2.173080   3.880752   1.084538   3.406497
    17  H    5.311511   3.877708   2.171824   3.405562   1.084786
    18  H    2.144319   2.595956   3.400693   3.984494   4.552545
    19  H    2.631276   4.476123   3.871156   5.714500   5.246962
    20  H    3.336398   3.739997   3.070932   4.800583   4.290975
                    6          7          8          9         10
     6  C    0.000000
     7  C    1.522253   0.000000
     8  C    4.306817   2.785198   0.000000
     9  F    5.662223   4.140650   1.355456   0.000000
    10  N    1.471812   2.456249   5.029812   6.346633   0.000000
    11  H    2.177963   2.757128   4.938833   6.180021   3.403730
    12  H    2.180846   3.472707   6.093499   7.413193   2.708418
    13  H    2.173082   2.775953   4.982945   6.227966   2.693877
    14  H    2.732421   2.155339   3.377988   4.507747   4.010453
    15  H    2.735179   2.148358   3.382695   4.513688   2.579290
    16  H    4.708663   3.428097   2.145730   2.596578   5.788308
    17  H    4.716452   3.427544   2.145502   2.595051   4.914685
    18  H    1.103668   2.128384   4.755941   6.085588   2.150415
    19  H    2.042915   3.337315   6.005588   7.335145   1.017954
    20  H    2.047280   2.677000   4.998644   6.265518   1.018025
                   11         12         13         14         15
    11  H    0.000000
    12  H    1.773195   0.000000
    13  H    1.777154   1.777112   0.000000
    14  H    3.175445   4.283797   4.215738   0.000000
    15  H    3.946686   4.151722   2.854747   4.289797   0.000000
    16  H    5.028221   6.400973   5.766703   2.497677   4.965195
    17  H    5.552212   6.320486   4.868222   4.964402   2.508275
    18  H    2.470200   2.494788   3.061232   2.352590   3.747298
    19  H    3.635668   2.458033   2.987622   4.623200   3.503399
    20  H    4.187295   3.622762   3.646199   4.061567   2.878754
                   16         17         18         19         20
    16  H    0.000000
    17  H    4.285603   0.000000
    18  H    4.681674   5.521180   0.000000
    19  H    6.623735   5.905546   2.427329   0.000000
    20  H    5.712121   4.949243   2.419052   1.626014   0.000000
 Stoichiometry    C8H10FN
 Framework group  C1[X(C8H10FN)]
 Deg. of freedom    54
 Full point group                 C1      NOp   1
 Largest Abelian subgroup         C1      NOp   1
 Largest concise Abelian subgroup C1      NOp   1
                         Standard orientation:
 ---------------------------------------------------------------------
 Center     Atomic      Atomic             Coordinates (Angstroms)
 Number     Number       Type             X           Y           Z
 ---------------------------------------------------------------------
      1          6           0        2.678411    0.523332    1.181958
[...]
 572474,0.28333180,0.00069891,0.00026850,-0.00030434,-0.02297654,0.0261
 5500,0.01581045,-0.03365745,-0.02218360,-0.00903149,-0.14727491,0.0945
 8705,0.05761464,-0.16188830,-0.11311555,-0.05202711,-0.00231984,-0.000
 25630,0.00058134,0.00199379,-0.00313787,-0.00260333,0.65842764,-0.0003
 0889,0.00046723,0.00038449,0.07686058,0.03043764,0.00929221,-0.0729427
 0,0.03212481,0.02411911,0.02699501,-0.25189809,-0.10567464,-0.04476228
 ,-0.24886873,-0.09714941,0.00021421,-0.00204073,-0.00035171,-0.0030181
 2,-0.06106690,-0.03082259,0.01850936,0.58701315,-0.00027766,0.00031410
 ,0.00031091,0.04336097,0.01472268,0.00300832,-0.03589361,0.01899035,0.
 01276744,0.02086313,-0.11074317,-0.11982609,-0.01605528,-0.09228390,-0
 .10648584,0.00053061,-0.00116851,-0.00059004,-0.00260500,-0.03059529,-
 0.01976076,-0.03099940,0.23800076,0.26804522,-0.00135079,-0.00059633,0
 .00102809,0.00203592,0.00274041,0.00205924,0.00206622,-0.00428584,-0.0
 0215698,-0.04128494,0.00370306,0.00540808,-0.04579031,-0.00217146,0.00
 269160,0.00230397,0.00058182,-0.00169198,-0.00223636,0.00007026,0.0014
 3203,-0.30748020,0.00123190,0.02154201,0.39325346,0.00009549,0.0000003
 5,-0.00004023,-0.00431115,-0.00464362,-0.00619350,0.00310455,-0.004804
 97,-0.00692053,0.03940866,0.00618682,-0.00242187,-0.03836037,0.0069984
 8,0.00402138,0.00006037,-0.00001656,0.00050019,0.00020963,0.00325981,0
 .00230656,0.00135998,-0.06633782,-0.01510039,-0.00205679,0.05672808,0.
 00001625,-0.00002527,-0.00010043,-0.00190252,-0.00692501,0.00427464,0.
 00187097,-0.00618427,0.00415095,0.02479452,0.00021916,0.00319521,-0.01
 623739,0.00139597,0.00701033,-0.00042275,0.00062058,-0.00048224,0.0004
 2429,0.00236877,0.00000329,0.02145052,-0.01514841,-0.04793923,-0.02984
 195,0.01829691,0.03486101,0.00643409,0.01297851,-0.00247443,-0.0044964
 3,0.00207323,0.00247394,-0.00196437,-0.00002235,0.00198192,-0.00140906
 ,-0.00032155,-0.00155065,0.00013957,-0.00134791,-0.00110545,-0.1044801
 7,-0.04941157,-0.01077410,-0.02122250,-0.03879206,0.00521445,0.0009419
 4,-0.00050921,-0.00033959,-0.00176388,-0.00000940,0.00014704,0.6373400
 1,-0.00756782,-0.02391416,0.01017593,0.00049788,0.00022759,0.00101876,
 0.00127388,-0.00090079,-0.00230965,0.00034763,0.00016161,0.00004118,-0
 .00004328,0.00045277,0.00024228,-0.02037759,-0.17876256,-0.00212618,-0
 .00963434,-0.00202523,0.00270476,0.00021668,0.00005429,0.00012663,-0.0
 0029253,0.00010844,0.00000209,0.00448679,0.35120501,0.01089136,0.03610
 359,-0.00779648,-0.00068880,-0.00003077,0.00025569,0.00060572,-0.00073
 835,-0.00012492,-0.00046042,0.00018838,0.00009445,0.00022887,0.0006828
 7,0.00047558,0.00011775,0.03982027,-0.07687517,0.00062574,0.00038966,0
 .00028213,0.00010479,-0.00041725,-0.00028010,-0.00001563,0.00010740,0.
 00003233,0.08528195,-0.17766004,0.45057692,-0.08254942,-0.09013687,0.0
 1729959,0.00013178,-0.00006524,0.00002193,0.00008754,0.00003258,0.0000
 5015,-0.00010694,-0.00002550,0.00003140,0.00004554,0.00004802,0.000000
 47,0.00318280,0.01256591,-0.00068510,0.00032499,0.00100111,-0.00004645
 ,-0.00006218,-0.00006450,-0.00003401,0.00014299,-0.00000372,-0.0000136
 4,-0.00090515,0.00150830,-0.00261156,0.08576420,-0.08782205,-0.2729041
 1,0.04330701,-0.00000447,0.00017562,-0.00014310,0.00047530,-0.00025030
 ,-0.00029707,0.00030416,-0.00000322,-0.00011711,-0.00028579,-0.0001263
 0,0.00000943,-0.00388675,-0.00956324,-0.00151752,-0.00087329,0.0003009
 5,-0.00009785,0.00003763,0.00025855,0.00015589,-0.00001335,-0.00001149
 ,-0.00000084,0.00189951,-0.00079976,0.00344517,0.09634595,0.29440510,0
 .01628236,0.04132070,-0.05624875,0.00021947,0.00003303,0.00022170,-0.0
 0043762,0.00004841,0.00016768,-0.00033728,0.00000448,0.00006210,0.0003
 2624,0.00021743,0.00000298,0.01151557,0.02465137,-0.00237276,0.0007643
 8,-0.00001000,0.00018376,-0.00008544,-0.00030957,-0.00019377,0.0001176
 1,0.00000849,0.00000603,-0.00332189,0.00259888,-0.00530654,-0.01663552
 ,-0.04879841,0.05894023,-0.30687911,0.01410518,0.02070021,-0.00007398,
 0.00065783,0.00003983,0.00011198,-0.00036792,-0.00052639,-0.00016034,-
 0.00001360,0.00021973,-0.00018513,-0.00018701,0.00007065,-0.01234787,-
 0.00024411,0.00222529,0.00022046,0.00085761,-0.00285670,0.00043593,0.0
 0000479,-0.00004055,-0.00066080,0.00001794,0.00003613,0.00098702,-0.00
 022777,0.00065835,-0.00981083,0.00117132,0.00087299,0.33312239,0.01387
 226,-0.04970490,-0.00187283,-0.00013669,-0.00024816,-0.00011653,0.0004
 5065,-0.00000133,-0.00004685,0.00047611,-0.00007136,-0.00029252,-0.000
 40574,-0.00008879,-0.00004532,0.01188451,-0.00221157,-0.00111538,0.000
 46824,0.00031074,0.00224568,-0.00012034,0.00044012,0.00025282,0.000243
 02,-0.00003842,-0.00002415,0.00070947,0.00068217,-0.00030781,-0.029823
 87,0.00346290,0.00202019,-0.01613157,0.04867182,0.02160922,-0.00156424
 ,-0.04995255,-0.00058467,0.00008902,0.00015194,-0.00051872,-0.00016131
 ,-0.00006042,0.00004503,-0.00011666,0.00028287,-0.00021471,-0.00027353
 ,0.00033999,-0.03018232,0.00213641,0.00128167,-0.00039666,0.00263111,-
 0.00410522,0.00034608,0.00011715,0.00003509,-0.00063506,0.00002608,-0.
 00000204,0.00003940,-0.00153532,0.00134109,0.00549292,-0.00098484,-0.0
 0134768,-0.02045062,-0.00086658,0.05233718,-0.06397957,0.03880609,0.05
 002309,-0.00035414,-0.00027606,-0.00000666,0.00031469,0.00002021,0.000
 09154,0.00028857,-0.00011494,-0.00012937,-0.00032064,-0.00012499,0.000
 06570,0.00186154,-0.00878667,-0.01144581,0.00105893,-0.00097732,-0.000
 62053,-0.00002477,0.00030925,0.00017447,0.00011081,-0.00000326,-0.0000
 2445,0.00010238,-0.00013267,0.00134642,0.00232778,-0.00664266,-0.01019
 378,-0.00587170,0.01943904,0.02465939,0.06483993,0.03793270,-0.1432154
 3,-0.12272743,-0.00004497,0.00002863,-0.00004093,-0.00020311,0.0000514
 7,0.00004413,-0.00002425,0.00003821,0.00003628,0.00002426,-0.00001357,
 0.00001180,-0.00299598,0.00631582,0.00996652,-0.00045391,0.00031379,0.
 00001148,-0.00000187,-0.00004223,-0.00003913,-0.00004831,0.00000054,0.
 00000878,0.00001740,0.00131743,-0.00004317,0.00813047,-0.01544659,-0.0
 2248403,-0.00023452,-0.00067280,0.00051465,-0.04287153,0.15132526,0.04
 896458,-0.12104018,-0.20136163,-0.00074470,-0.00035186,0.00008756,0.00
 002569,-0.00030415,0.00010034,0.00048284,-0.00013573,-0.00014254,-0.00
 053224,-0.00008908,0.00007528,0.00593148,-0.01810065,-0.02430550,0.001
 60899,0.00017396,0.00084368,0.00004922,0.00049275,0.00024871,-0.000080
 44,-0.00000845,-0.00001637,0.00067768,-0.00048678,0.00217928,-0.002273
 92,0.00419038,0.00586825,0.00022257,-0.00026664,-0.00111677,-0.0512823
 0,0.13261166,0.22157323,-0.00002951,0.00001348,0.00000116,-0.11499048,
 0.09449633,0.05804832,-0.00144959,-0.00277341,-0.00087010,-0.01036032,
 0.02535735,0.01455309,-0.00079394,-0.00045052,-0.00019290,0.00033320,-
 0.00162935,-0.00147440,0.01111281,-0.01236090,-0.00723412,-0.00358176,
 -0.00223595,-0.00037943,-0.00194320,0.00152408,0.00103767,0.00019864,0
 .00055202,0.00016485,-0.00000760,0.00001679,-0.00000038,0.00003967,-0.
 00000076,0.00002873,0.00003034,0.00001536,0.00007743,0.12027461,0.0000
 1540,0.00012811,0.00005768,0.09493421,-0.21770713,-0.10613927,-0.00393
 887,-0.00126958,-0.00373652,-0.00187299,0.00335374,0.00056278,-0.00073
 209,0.00004360,0.00050916,0.00230709,-0.00103323,0.00098084,0.01224095
 ,-0.01390094,-0.01061143,-0.00121047,0.00313664,-0.00234838,0.00013877
 ,0.00010015,-0.00002369,-0.00032395,0.00047980,0.00030861,0.00000102,-
 0.00000548,-0.00003887,-0.00001268,-0.00003621,0.00001307,0.00005641,0
 .00001024,0.00008100,-0.10167281,0.22769982,-0.00054332,-0.00021024,0.
 00009939,0.05813906,-0.10646395,-0.09912513,-0.00165212,-0.00358863,0.
 00430611,-0.00004303,-0.00173735,0.00189780,-0.00030123,0.00051389,-0.
 00047631,0.00007827,0.00200621,-0.00272216,0.00669952,-0.00829986,-0.0
 0143132,0.00026791,-0.00231927,0.00637659,0.00024220,-0.00011568,-0.00
 002815,0.00036307,0.00021017,0.00021242,-0.00006700,0.00012409,-0.0001
 2752,-0.00005319,0.00016613,-0.00015796,0.00005697,0.00001193,0.000053
 27,-0.06308224,0.11804052,0.09483244,-0.00020321,-0.00010636,0.0000041
 5,-0.00113072,0.00214645,0.00182089,-0.14045947,-0.11765308,-0.0543394
 6,-0.00059037,0.00056009,0.00028435,-0.01240909,-0.02377292,-0.0113121
 5,-0.00051887,0.00050769,-0.00023900,0.01320234,0.00996287,0.00488628,
 -0.00328725,0.00174948,0.00188887,-0.00171912,-0.00137688,-0.00055101,
 -0.00199697,0.00051217,0.00050996,0.00003831,-0.00007651,0.00005473,0.
 00002571,-0.00003281,-0.00004355,0.00001643,0.00005451,-0.00004325,0.0
 0037558,0.00079393,0.00038161,0.14692781,0.00039301,-0.00006892,-0.000
 24689,0.00312879,-0.00126576,-0.00413343,-0.11709344,-0.22014582,-0.08
 594720,0.00079988,0.00002395,0.00038084,0.00259939,0.00473123,0.000726
 71,-0.00142629,-0.00180960,0.00129797,-0.01420378,-0.01413256,-0.00846
 093,0.00093760,0.00284818,-0.00260409,0.00015815,0.00019880,0.00007238
 ,-0.00153905,0.00059168,0.00076563,-0.00005112,0.00011227,-0.00003001,
 0.00002370,0.00004800,0.00021348,0.00011939,-0.00004681,0.00030482,-0.
 00075271,-0.00080397,-0.00045494,0.12715209,0.22987998,-0.00033856,0.0
 0001734,0.00012694,0.00233321,-0.00424616,0.00378368,-0.05365584,-0.08
 468466,-0.07776898,0.00038656,0.00043938,-0.00064508,0.00249277,0.0024
 1352,0.00404450,-0.00098064,0.00068555,-0.00269305,-0.00797417,-0.0104
 7416,-0.00075431,0.00133807,-0.00275250,0.00634993,0.00011505,0.000158
 27,0.00009695,-0.00055573,0.00038320,-0.00009255,-0.00002764,0.0000424
 7,0.00002885,-0.00001029,-0.00006803,-0.00019004,-0.00007557,0.0000133
 3,-0.00007261,-0.00045838,-0.00057178,-0.00012290,0.05763991,0.0954872
 1,0.07146640,-0.00011422,-0.00004520,0.00014899,-0.01070924,-0.0241239
 8,-0.01218017,-0.00083828,0.00062113,0.00032971,-0.14448174,-0.1197080
 3,-0.05584661,-0.00108323,0.00233562,0.00174745,0.00046893,-0.00118161
 ,-0.00059642,-0.00483738,0.00155582,0.00166229,0.00953396,0.01126349,0
 .00561894,0.00237991,-0.00097197,-0.00101707,-0.00059707,-0.00006892,-
 0.00008196,0.00001394,0.00001516,-0.00001258,-0.00007521,0.00003536,-0
 .00007396,0.00001020,-0.00000777,-0.00002078,0.00101851,0.00036362,-0.
 00021316,0.00007300,-0.00010802,-0.00011319,0.14881373,-0.00007499,-0.
 00001929,0.00002484,0.00207200,0.00467739,0.00151845,0.00092305,0.0000
 0337,0.00040238,-0.11829332,-0.21462766,-0.08945187,0.00334250,-0.0013
 0777,-0.00385016,0.00024794,0.00015556,-0.00015727,0.00069866,0.002827
 21,-0.00242559,-0.01699428,-0.01324894,-0.00777349,-0.00045197,0.00109
 260,0.00279742,0.00003639,0.00001722,0.00000939,0.00001028,-0.00000094
 ,0.00000959,-0.00003037,0.00002171,-0.00002423,-0.00000298,0.00000188,
 -0.00000136,-0.00010636,-0.00039605,0.00205772,-0.00007328,-0.00016101
 ,0.00031132,0.12943973,0.22161888,0.00001514,-0.00002934,0.00001822,0.
 00207131,0.00352970,0.00343065,0.00059650,0.00042712,-0.00072727,-0.05
 513516,-0.08952809,-0.07647991,0.00220128,-0.00379107,0.00312864,0.000
 07574,0.00011147,0.00031289,0.00151145,-0.00239586,0.00589379,-0.00967
 486,-0.00976098,-0.00097608,-0.00068894,0.00280581,-0.00244717,-0.0001
 4463,-0.00006298,-0.00002220,-0.00000069,-0.00000697,0.00000722,0.0000
 0964,-0.00003428,-0.00001219,0.00001260,-0.00000680,-0.00001682,-0.000
 46395,0.00203642,-0.00305423,-0.00011098,0.00029871,-0.00056613,0.0601
 8755,0.09698563,0.07149910,-0.00003668,-0.00006138,0.00013205,-0.00102
 663,-0.00055454,-0.00027823,-0.00853111,0.02467432,0.01394544,-0.00172
 742,-0.00292490,-0.00098647,-0.12061003,0.10186587,0.06111316,0.000407
 32,0.00129479,0.00075472,-0.00513325,-0.00155530,-0.00006496,0.0098736
 2,-0.01325323,-0.00751176,0.00257518,0.00139573,0.00021539,-0.00000636
 ,-0.00011699,-0.00005506,0.00000759,0.00001316,-0.00000898,-0.00006236
 ,0.00001549,-0.00007440,0.00001648,-0.00000317,-0.00003756,0.00008435,
 0.00016178,0.00001822,0.00113005,-0.00010432,-0.00046140,0.00052469,-0
 .00075089,-0.00042734,0.12308709,0.00005520,0.00003159,-0.00000708,-0.
 00088951,0.00006604,0.00054803,-0.00139246,0.00434879,0.00144464,-0.00
 389738,-0.00124654,-0.00319312,0.10034712,-0.22019281,-0.10740570,-0.0
 0019863,0.00014175,-0.00004854,-0.00113440,0.00299295,-0.00232530,0.01
 518174,-0.01350266,-0.01019885,0.00080302,0.00109121,0.00261201,0.0000
 4306,-0.00000323,-0.00001804,-0.00000977,-0.00000631,-0.00000294,0.000
 01656,-0.00002967,0.00001441,0.00000085,-0.00000346,-0.00000546,0.0001
 4526,-0.00018814,0.00028572,0.00041112,-0.00040473,0.00207646,0.000648
 42,-0.00066861,-0.00057685,-0.11019999,0.22759903,0.00004469,-0.000009
 73,-0.00009342,-0.00042193,0.00051071,-0.00048518,0.00004584,-0.000499
 49,0.00161794,-0.00149971,-0.00328771,0.00365864,0.06022094,-0.1074692
 0,-0.09438128,-0.00028788,-0.00024507,0.00022360,0.00061000,-0.0023289
 9,0.00616745,0.00746409,-0.00795037,-0.00129013,0.00001461,0.00255016,
 -0.00260240,0.00019937,0.00007643,0.00004622,0.00000312,0.00000246,0.0
 0000283,0.00003518,0.00001684,0.00003522,-0.00002699,0.00001744,0.0000
 0330,0.00001103,0.00029424,-0.00060059,-0.00032405,0.00203109,-0.00323
 792,0.00032427,-0.00045295,0.00004341,-0.06637274,0.11676314,0.0910165
 2,0.00338934,-0.00678454,-0.01154913,0.00028452,0.00231831,0.00074711,
 -0.00552701,-0.00216072,-0.00022081,-0.00009041,0.00000643,-0.00009769
 ,-0.00008383,0.00177434,0.00010265,-0.06669149,0.03452985,0.04435890,-
 0.01321058,0.02048217,0.02493323,0.00056056,-0.00013470,0.00004611,-0.
 00058718,-0.00008767,0.00000634,0.00382401,-0.01498298,-0.00971898,0.0
 0031229,0.00010054,0.00057806,0.00051666,-0.00063400,0.00040248,-0.000
 25669,0.00070037,-0.00274010,-0.00034117,-0.00121949,-0.00035049,0.000
 34868,0.00000584,0.00027513,-0.00003168,-0.00002251,-0.00001042,-0.000
 55892,0.00006158,-0.00003401,0.07718358,-0.00198439,0.00785949,0.00976
 881,-0.00237964,0.00022322,0.00064506,0.00028476,0.00109111,-0.0002350
 8,0.00045800,-0.00019795,0.00053079,-0.00011109,-0.00007170,-0.0001131
 0,0.03686214,-0.13095244,-0.10642640,0.00294344,-0.00159557,-0.0035361
 6,-0.00030275,0.00011429,0.00020855,0.00019342,0.00007216,-0.00009831,
 -0.00129381,-0.03686617,-0.01914665,-0.00035968,0.00060009,-0.00064413
 ,-0.00021344,0.00014201,-0.00058121,0.00118171,-0.00004237,0.00289508,
 -0.00011872,0.00047988,-0.00027993,-0.00039170,0.00002556,0.00034578,0
 .00003273,0.00001154,-0.00001773,0.00009957,-0.00001763,-0.00000199,-0
 .03499070,0.15667009,0.00650299,-0.01617589,-0.02480629,-0.00137350,-0
 .00029658,0.00063211,0.00069177,0.00002508,0.00044512,0.00056519,0.000
 01166,0.00019234,-0.00051730,-0.00032662,-0.00006391,0.04713879,-0.104
 86449,-0.18336664,-0.00120888,-0.00151343,-0.00095366,-0.00023614,0.00
 042995,0.00038632,0.00021235,0.00003230,-0.00007923,-0.00229552,0.0040
 5985,0.00919442,0.00044740,0.00039782,0.00039118,-0.00042781,-0.000168
 36,0.00126863,-0.00273260,0.00229909,-0.00451866,0.00034019,0.00062134
 ,0.00000245,0.00002306,0.00005296,-0.00003151,0.00005004,0.00001006,-0
 .00003016,0.00006119,0.00005053,-0.00009121,-0.04588588,0.11574252,0.1
 9916503,0.00110766,0.00067270,0.00007163,-0.00030872,0.00035418,0.0007
 5119,0.00020198,-0.00026114,-0.00023095,-0.00030464,-0.00001710,-0.000
 15542,0.00010397,-0.00008059,0.00004991,-0.01401211,0.00587575,0.00292
 844,0.00034880,-0.00349622,0.00007540,0.00024922,-0.00022950,-0.000093
 80,-0.00034256,0.00002685,0.00002250,-0.41712491,0.01684241,0.01285021
 ,0.00023084,-0.00003812,-0.00032593,0.00028854,-0.00014260,0.00045175,
 -0.00003455,-0.00008411,-0.00003793,0.00001460,-0.00007613,0.00000596,
 0.00004777,-0.00004989,-0.00014917,-0.00008850,0.00002668,-0.00003804,
 -0.00003036,0.00001801,0.00000915,0.00103416,0.00054080,-0.00093203,0.
 44166144,-0.00092443,0.00149439,-0.00022463,-0.00153734,0.00029960,0.0
 0035667,0.00068961,-0.00025718,-0.00063663,-0.00007382,-0.00009701,-0.
 00043274,-0.00019549,0.00026165,-0.00007161,-0.04051849,-0.00341841,0.
 00274417,-0.00076756,-0.00619999,0.00087261,0.00017980,0.00004059,0.00
 004918,-0.00012345,0.00001626,0.00008198,0.04987619,-0.04298359,0.0201
 1380,0.00034584,0.00011531,-0.00049520,0.00085121,-0.00083577,0.000758
 59,0.00020184,-0.00009926,-0.00004671,-0.00000511,-0.00006040,0.000142
 31,-0.00019147,0.00039470,0.00057324,-0.00011757,0.00000242,0.00000420
 ,-0.00000453,0.00001589,-0.00003635,-0.00017027,0.00114905,-0.00037295
 ,-0.02169922,0.05219699,0.00160075,0.00040346,-0.00012962,0.00056639,-
 0.00032625,-0.00016173,0.00045735,0.00002873,0.00000245,0.00008176,0.0
 0019742,0.00012272,-0.00006635,0.00026533,-0.00002525,0.00396335,-0.00
 792637,-0.00249586,0.00108674,0.00175917,0.00030978,-0.00016031,0.0000
 5001,0.00000846,0.00035185,-0.00000567,0.00003223,0.05453031,0.0209324
 6,-0.03784345,-0.00044537,-0.00023547,0.00002028,-0.00061814,0.0007612
 9,-0.00025489,0.00005104,-0.00001720,-0.00006420,-0.00011544,0.0000502
 6,0.00005850,-0.00050783,0.00031948,0.00045880,0.00009796,0.00000571,0
 .00001199,0.00006124,-0.00001581,-0.00004633,-0.00075315,0.00096866,0.
 00054845,-0.02173011,-0.01867234,0.03929228,-0.00099827,-0.00273196,0.
 00047515,-0.00042360,-0.00026041,-0.00029168,-0.00001385,0.00029233,-0
 .00020704,0.00038396,-0.00016289,-0.00012625,-0.00029494,0.00006154,-0
 .00009535,0.00480945,-0.00390667,0.01480710,0.00088113,-0.00053172,0.0
 0082548,-0.00016238,0.00032101,0.00020497,0.00029090,-0.00002207,-0.00
 001084,-0.09400080,0.02720711,-0.09975355,0.00083153,-0.00073652,0.000
 62799,0.00037898,-0.00016575,0.00009968,-0.00013603,0.00009845,-0.0002
 4725,0.00001526,0.00004631,0.00005298,0.00012939,0.00001077,0.00021991
 ,0.00001969,0.00000368,0.00001381,0.00001673,-0.00000980,-0.00001497,-
 0.00007484,-0.00045063,-0.00042331,-0.01304262,0.01418425,-0.03845204,
 0.10139030,-0.00354234,-0.00617765,-0.00006701,0.00000352,-0.00007191,
 -0.00029075,-0.00003818,0.00013611,0.00018136,0.00015145,-0.00013927,0
 .00004266,0.00000770,-0.00002506,0.00008198,0.01185189,-0.01645060,0.0
 3334503,0.00012442,0.00093797,-0.00005968,-0.00011032,0.00007059,0.000
 03424,0.00017621,-0.00000083,-0.00004610,0.02145032,-0.06904253,0.0964
 2731,0.00055082,-0.00031303,0.00190058,-0.00004313,0.00015952,-0.00040
 606,-0.00020171,0.00017925,0.00008740,-0.00001407,-0.00003085,-0.00008
 881,-0.00017540,-0.00001518,-0.00014980,0.00002197,0.00000049,0.000011
 89,0.00000851,-0.00002348,0.00001935,0.00120813,0.00130536,-0.00001484
 ,0.00181722,-0.00203525,0.00145713,-0.03324702,0.09153637,0.00155829,0
 .00276270,0.00076499,0.00049743,0.00023677,0.00017493,0.00018798,-0.00
 015511,0.00009374,-0.00031173,0.00009509,-0.00001157,0.00026599,0.0000
 3725,0.00002157,-0.00168795,-0.00720749,-0.00653319,-0.00023393,0.0001
 1167,0.00010671,0.00009531,-0.00022974,-0.00019494,-0.00010376,-0.0000
 0723,0.00003428,-0.12834714,0.14160831,-0.33634913,-0.00050608,0.00052
 448,-0.00030606,-0.00010690,-0.00023768,0.00012610,0.00005682,-0.00018
 839,0.00058218,0.00000890,-0.00008597,0.00000728,-0.00002254,-0.000073
 80,-0.00018095,-0.00001129,0.00000440,-0.00001376,-0.00002253,0.000002
 74,0.00001333,-0.00008934,-0.00002455,0.00171523,0.00647724,-0.0047075
 9,0.00015540,0.12229522,-0.13246587,0.33979386\\0.00000232,-0.00000649
 ,0.00002537,0.00000850,0.00000177,0.00000010,-0.00000626,0.00000583,-0
 .00000293,-0.00000528,0.00000602,0.00000615,0.00001595,0.00000136,0.00
 000420,0.00002342,0.00005619,-0.00003593,-0.00001250,-0.00001139,0.000
 00289,0.00000936,-0.00001473,-0.00000897,-0.00000645,-0.00000431,-0.00
 000038,-0.00002313,-0.00003543,0.00000471,-0.00000375,0.00000292,-0.00
 001057,0.00000219,0.00000382,-0.00000196,0.00000275,0.00000072,-0.0000
 0143,-0.00000359,0.00000126,0.00000321,-0.00000931,-0.00000210,0.00000
 285,0.00000374,-0.00000288,-0.00000311,0.00000036,-0.00000124,-0.00000
 083,-0.00000059,-0.00000448,0.00001083,0.00000236,0.00000454,0.0000031
 1,-0.00000009,-0.00000138,0.00000269\\\@


 SACRED COWS MAKE GREAT HAMBURGERS -- ROBERT REISNER
 Job cpu time:       0 days  0 hours 23 minutes 41.5 seconds.
 Elapsed time:       0 days  0 hours  0 minutes 30.4 seconds.
 File lengths (MBytes):  RWF=    139 Int=      0 D2E=      0 Chk=     11 Scr=      1
 Normal termination of Gaussian 16 at Mon Jun 13 18:14:10 2022.
