 Entering Gaussian System, Link 0=/uufs/chpc.utah.edu/sys/installdir/gaussian16/C01/AVX2/g16/g16
 Input=MAHT26_clust-3.com
 Output=MAHT26_clust-3.log
 Initial command:
 /uufs/chpc.utah.edu/sys/installdir/gaussian16/C01/AVX2/g16/l1.exe "/scratch/general/vast/u0906557/8650617/notchpeak.peaks/Gau-160805.inp" -scrdir="/scratch/general/vast/u0906557/8650617/notchpeak.peaks/"
 Entering Link 1 = /uufs/chpc.utah.edu/sys/installdir/gaussian16/C01/AVX2/g16/l1.exe PID=    160843.
  
 Copyright (c) 1988-2019, Gaussian, Inc.  All Rights Reserved.
  
 This is part of the Gaussian(R) 16 program.  It is based on
 the Gaussian(R) 09 system (copyright 2009, Gaussian, Inc.),
 the Gaussian(R) 03 system (copyright 2003, Gaussian, Inc.),
 the Gaussian(R) 98 system (copyright 1998, Gaussian, Inc.),
 the Gaussian(R) 94 system (copyright 1995, Gaussian, Inc.),
 the Gaussian 92(TM) system (copyright 1992, Gaussian, Inc.),
 the Gaussian 90(TM) system (copyright 1990, Gaussian, Inc.),
 the Gaussian 88(TM) system (copyright 1988, Gaussian, Inc.),
 the Gaussian 86(TM) system (copyright 1986, Carnegie Mellon
 University), and the Gaussian 82(TM) system (copyright 1983,
 Carnegie Mellon University). Gaussian is a federally registered
 trademark of Gaussian, Inc.
  
 This software contains proprietary and confidential information,
 including trade secrets, belonging to Gaussian, Inc.
  
 This software is provided under written license and may be
 used, copied, transmitted, or stored only in accord with that
 written license.
  
 The following legend is applicable only to US Government
 contracts under FAR:
  
                    RESTRICTED RIGHTS LEGEND
  
 Use, reproduction and disclosure by the US Government is
 subject to restrictions as set forth in subparagraphs (a)
 and (c) of the Commercial Computer Software - Restricted
 Rights clause in FAR 52.227-19.
  
 Gaussian, Inc.
 340 Quinnipiac St., Bldg. 40, Wallingford CT 06492
  
  
 ---------------------------------------------------------------
 Warning -- This program may not be used in any manner that
 competes with the business of Gaussian, Inc. or will provide
 assistance to any competitor of Gaussian, Inc.  The licensee
 of this program is prohibited from giving any competitor of
 Gaussian, Inc. access to this program.  By using this program,
 the user acknowledges that Gaussian, Inc. is engaged in the
 business of creating and licensing software in the field of
 computational chemistry and represents and warrants to the
 licensee that it is not a competitor of Gaussian, Inc. and that
 it will not use this program in any manner prohibited above.
 ---------------------------------------------------------------
  

 Cite this work as:
 Gaussian 16, Revision C.01,
 M. J. Frisch, G. W. Trucks, H. B. Schlegel, G. E. Scuseria, 
 M. A. Robb, J. R. Cheeseman, G. Scalmani, V. Barone, 
 G. A. Petersson, H. Nakatsuji, X. Li, M. Caricato, A. V. Marenich, 
 J. Bloino, B. G. Janesko, R. Gomperts, B. Mennucci, H. P. Hratchian, 
 J. V. Ortiz, A. F. Izmaylov, J. L. Sonnenberg, D. Williams-Young, 
 F. Ding, F. Lipparini, F. Egidi, J. Goings, B. Peng, A. Petrone, 
 T. Henderson, D. Ranasinghe, V. G. Zakrzewski, J. Gao, N. Rega, 
 G. Zheng, W. Liang, M. Hada, M. Ehara, K. Toyota, R. Fukuda, 
 J. Hasegawa, M. Ishida, T. Nakajima, Y. Honda, O. Kitao, H. Nakai, 
 T. Vreven, K. Throssell, J. A. Montgomery, Jr., J. E. Peralta, 
 F. Ogliaro, M. J. Bearpark, J. J. Heyd, E. N. Brothers, K. N. Kudin, 
 V. N. Staroverov, T. A. Keith, R. Kobayashi, J. Normand, 
 K. Raghavachari, A. P. Rendell, J. C. Burant, S. S. Iyengar, 
 J. Tomasi, M. Cossi, J. M. Millam, M. Klene, C. Adamo, R. Cammi, 
 J. W. Ochterski, R. L. Martin, K. Morokuma, O. Farkas, 
 J. B. Foresman, and D. J. Fox, Gaussian, Inc., Wallingford CT, 2019.
 
 ******************************************
 Gaussian 16:  ES64L-G16RevC.01  3-Jul-2019
                 9-Oct-2023 
 ******************************************
 %NProcShared=56
 Will use up to   56 processors via shared memory.
 %Mem=64GB
 %chk=MAHT26_clust-3.chk
 ------------------------------------------------------
 #N OPT FREQ=NORAMAN Integral(Ultrafine) wB97XD def2SVP
 ------------------------------------------------------
 1/18=20,19=15,26=4,38=1/1,3;
 2/9=110,12=2,17=6,18=5,40=1/2;
 3/5=43,7=101,11=2,25=1,30=1,71=1,74=-58,75=-5/1,2,3;
 4//1;
 5/5=2,38=5/2;
 6/7=2,8=2,9=2,10=2,28=1/1;
 7//1,2,3,16;
 1/18=20,19=15,26=4/3(2);
 2/9=110/2;
 99//99;
 2/9=110/2;
 3/5=43,7=101,11=2,25=1,30=1,71=1,74=-58,75=-5/1,2,3;
 4/5=5,16=3,69=1/1;
 5/5=2,38=5/2;
 7//1,2,3,16;
 1/18=20,19=15,26=4/3(-5);
 2/9=110/2;
 6/7=2,8=2,9=2,10=2,19=2,28=1/1;
 99/9=1/99;
 --------------
 MAHT26_clust-3
 --------------
 Symbolic Z-matrix:
 Charge =  0 Multiplicity = 1
 O                     3.2685   -1.5884    1.3093 
 C                     2.9626   -0.4126    1.107 
 S                     4.0273    0.6896    0.0768 
 C                     3.1665    2.2332    0.0242 
 C                     3.4973    3.2379    0.9298 
 C                     2.831     4.4601    0.9039 
 C                     1.8093    4.6992   -0.0485 
 C                     1.4747    3.6705   -0.9828 
 C                     0.4533    3.9104   -1.9357 
 C                    -0.2137    5.1326   -1.9589 
 C                     0.1118    6.1337   -1.0497 
 C                     1.1103    5.9312   -0.1005 
 C                     2.1725    2.4384   -0.9313 
 C                     1.6728    0.207     1.6872 
 C                     0.8591   -0.6449    2.6746 
 O                     1.5821   -0.9858    3.7829 
 O                    -0.314    -0.9568    2.4789 
 H                     4.2725    3.0725    1.6639 
 H                     3.0913    5.2329    1.6129 
 H                     0.1935    3.1385   -2.6459 
 H                    -0.9907    5.305    -2.6892 
 H                    -0.4148    7.0763   -1.0806 
 H                     1.3564    6.7149    0.6017 
 H                     1.9213    1.6578   -1.6356 
 H                     1.0244    0.4828    0.8548 
 H                     1.9292    1.1329    2.2024 
 H                     1.079    -1.513     4.4077 
 

 GradGradGradGradGradGradGradGradGradGradGradGradGradGradGradGradGradGrad
 Berny optimization.
 Initialization pass.
                           ----------------------------
                           !    Initial Parameters    !
                           ! (Angstroms and Degrees)  !
 --------------------------                            --------------------------
 ! Name  Definition              Value          Derivative Info.                !
 --------------------------------------------------------------------------------
 ! R1    R(1,2)                  1.2317         estimate D2E/DX2                !
 ! R2    R(2,3)                  1.8465         estimate D2E/DX2                !
 ! R3    R(2,14)                 1.5441         estimate D2E/DX2                !
 ! R4    R(3,4)                  1.7682         estimate D2E/DX2                !
 ! R5    R(4,5)                  1.3925         estimate D2E/DX2                !
 ! R6    R(4,13)                 1.394          estimate D2E/DX2                !
 ! R7    R(5,6)                  1.3923         estimate D2E/DX2                !
 ! R8    R(5,18)                 1.0804         estimate D2E/DX2                !
 ! R9    R(6,7)                  1.4171         estimate D2E/DX2                !
 ! R10   R(6,19)                 1.0806         estimate D2E/DX2                !
 ! R11   R(7,8)                  1.4294         estimate D2E/DX2                !
 ! R12   R(7,12)                 1.4174         estimate D2E/DX2                !
 ! R13   R(8,9)                  1.4173         estimate D2E/DX2                !
 ! R14   R(8,13)                 1.4169         estimate D2E/DX2                !
 ! R15   R(9,10)                 1.3926         estimate D2E/DX2                !
 ! R16   R(9,20)                 1.0806         estimate D2E/DX2                !
 ! R17   R(10,11)                1.391          estimate D2E/DX2                !
 ! R18   R(10,21)                1.0802         estimate D2E/DX2                !
 ! R19   R(11,12)                1.3925         estimate D2E/DX2                !
 ! R20   R(11,22)                1.0802         estimate D2E/DX2                !
 ! R21   R(12,23)                1.0807         estimate D2E/DX2                !
 ! R22   R(13,24)                1.081          estimate D2E/DX2                !
 ! R23   R(14,15)                1.5371         estimate D2E/DX2                !
 ! R24   R(14,25)                1.0906         estimate D2E/DX2                !
 ! R25   R(14,26)                1.0902         estimate D2E/DX2                !
 ! R26   R(15,16)                1.3665         estimate D2E/DX2                !
 ! R27   R(15,17)                1.2295         estimate D2E/DX2                !
 ! R28   R(16,27)                0.9599         estimate D2E/DX2                !
 ! A1    A(1,2,3)              121.2152         estimate D2E/DX2                !
 ! A2    A(1,2,14)             121.926          estimate D2E/DX2                !
 ! A3    A(3,2,14)             116.8566         estimate D2E/DX2                !
 ! A4    A(2,3,4)              104.891          estimate D2E/DX2                !
 ! A5    A(3,4,5)              119.6621         estimate D2E/DX2                !
 ! A6    A(3,4,13)             119.7389         estimate D2E/DX2                !
 ! A7    A(5,4,13)             120.5959         estimate D2E/DX2                !
 ! A8    A(4,5,6)              120.5042         estimate D2E/DX2                !
 ! A9    A(4,5,18)             120.1264         estimate D2E/DX2                !
 ! A10   A(6,5,18)             119.3687         estimate D2E/DX2                !
 ! A11   A(5,6,7)              120.3757         estimate D2E/DX2                !
 ! A12   A(5,6,19)             120.0214         estimate D2E/DX2                !
 ! A13   A(7,6,19)             119.6029         estimate D2E/DX2                !
 ! A14   A(6,7,8)              119.1208         estimate D2E/DX2                !
 ! A15   A(6,7,12)             121.7937         estimate D2E/DX2                !
 ! A16   A(8,7,12)             119.0856         estimate D2E/DX2                !
 ! A17   A(7,8,9)              119.1002         estimate D2E/DX2                !
 ! A18   A(7,8,13)             119.1288         estimate D2E/DX2                !
 ! A19   A(9,8,13)             121.771          estimate D2E/DX2                !
 ! A20   A(8,9,10)             120.3268         estimate D2E/DX2                !
 ! A21   A(8,9,20)             119.6181         estimate D2E/DX2                !
 ! A22   A(10,9,20)            120.0551         estimate D2E/DX2                !
 ! A23   A(9,10,11)            120.577          estimate D2E/DX2                !
 ! A24   A(9,10,21)            119.7279         estimate D2E/DX2                !
 ! A25   A(11,10,21)           119.6951         estimate D2E/DX2                !
 ! A26   A(10,11,12)           120.5774         estimate D2E/DX2                !
 ! A27   A(10,11,22)           119.6877         estimate D2E/DX2                !
 ! A28   A(12,11,22)           119.7349         estimate D2E/DX2                !
 ! A29   A(7,12,11)            120.3329         estimate D2E/DX2                !
 ! A30   A(7,12,23)            119.616          estimate D2E/DX2                !
 ! A31   A(11,12,23)           120.051          estimate D2E/DX2                !
 ! A32   A(4,13,8)             120.2713         estimate D2E/DX2                !
 ! A33   A(4,13,24)            120.3988         estimate D2E/DX2                !
 ! A34   A(8,13,24)            119.3286         estimate D2E/DX2                !
 ! A35   A(2,14,15)            117.4628         estimate D2E/DX2                !
 ! A36   A(2,14,25)            108.1385         estimate D2E/DX2                !
 ! A37   A(2,14,26)            108.7798         estimate D2E/DX2                !
 ! A38   A(15,14,25)           108.4041         estimate D2E/DX2                !
 ! A39   A(15,14,26)           106.9557         estimate D2E/DX2                !
 ! A40   A(25,14,26)           106.6039         estimate D2E/DX2                !
 ! A41   A(14,15,16)           112.2825         estimate D2E/DX2                !
 ! A42   A(14,15,17)           122.9161         estimate D2E/DX2                !
 ! A43   A(16,15,17)           124.7936         estimate D2E/DX2                !
 ! A44   A(15,16,27)           112.8068         estimate D2E/DX2                !
 ! D1    D(1,2,3,4)            178.0099         estimate D2E/DX2                !
 ! D2    D(14,2,3,4)            -1.4751         estimate D2E/DX2                !
 ! D3    D(1,2,14,15)            7.2995         estimate D2E/DX2                !
 ! D4    D(1,2,14,25)         -115.7036         estimate D2E/DX2                !
 ! D5    D(1,2,14,26)          128.8923         estimate D2E/DX2                !
 ! D6    D(3,2,14,15)         -173.2194         estimate D2E/DX2                !
 ! D7    D(3,2,14,25)           63.7775         estimate D2E/DX2                !
 ! D8    D(3,2,14,26)          -51.6265         estimate D2E/DX2                !
 ! D9    D(2,3,4,5)             95.3047         estimate D2E/DX2                !
 ! D10   D(2,3,4,13)           -85.3286         estimate D2E/DX2                !
 ! D11   D(3,4,5,6)            179.9891         estimate D2E/DX2                !
 ! D12   D(3,4,5,18)            -0.3205         estimate D2E/DX2                !
 ! D13   D(13,4,5,6)             0.6279         estimate D2E/DX2                !
 ! D14   D(13,4,5,18)         -179.6816         estimate D2E/DX2                !
 ! D15   D(3,4,13,8)           179.9396         estimate D2E/DX2                !
 ! D16   D(3,4,13,24)            0.367          estimate D2E/DX2                !
 ! D17   D(5,4,13,8)            -0.6998         estimate D2E/DX2                !
 ! D18   D(5,4,13,24)          179.7277         estimate D2E/DX2                !
 ! D19   D(4,5,6,7)             -0.2082         estimate D2E/DX2                !
 ! D20   D(4,5,6,19)           179.754          estimate D2E/DX2                !
 ! D21   D(18,5,6,7)          -179.901          estimate D2E/DX2                !
 ! D22   D(18,5,6,19)            0.0612         estimate D2E/DX2                !
 ! D23   D(5,6,7,8)             -0.1307         estimate D2E/DX2                !
 ! D24   D(5,6,7,12)           179.9031         estimate D2E/DX2                !
 ! D25   D(19,6,7,8)           179.9069         estimate D2E/DX2                !
 ! D26   D(19,6,7,12)           -0.0592         estimate D2E/DX2                !
 ! D27   D(6,7,8,9)           -179.9625         estimate D2E/DX2                !
 ! D28   D(6,7,8,13)             0.0576         estimate D2E/DX2                !
 ! D29   D(12,7,8,9)             0.0046         estimate D2E/DX2                !
 ! D30   D(12,7,8,13)         -179.9753         estimate D2E/DX2                !
 ! D31   D(6,7,12,11)          179.9715         estimate D2E/DX2                !
 ! D32   D(6,7,12,23)           -0.026          estimate D2E/DX2                !
 ! D33   D(8,7,12,11)            0.0054         estimate D2E/DX2                !
 ! D34   D(8,7,12,23)         -179.9921         estimate D2E/DX2                !
 ! D35   D(7,8,9,10)            -0.0117         estimate D2E/DX2                !
 ! D36   D(7,8,9,20)          -179.9938         estimate D2E/DX2                !
 ! D37   D(13,8,9,10)          179.9677         estimate D2E/DX2                !
 ! D38   D(13,8,9,20)           -0.0144         estimate D2E/DX2                !
 ! D39   D(7,8,13,4)             0.3535         estimate D2E/DX2                !
 ! D40   D(7,8,13,24)          179.9305         estimate D2E/DX2                !
 ! D41   D(9,8,13,4)          -179.6259         estimate D2E/DX2                !
 ! D42   D(9,8,13,24)           -0.0488         estimate D2E/DX2                !
 ! D43   D(8,9,10,11)            0.0089         estimate D2E/DX2                !
 ! D44   D(8,9,10,21)         -179.9896         estimate D2E/DX2                !
 ! D45   D(20,9,10,11)         179.9909         estimate D2E/DX2                !
 ! D46   D(20,9,10,21)          -0.0076         estimate D2E/DX2                !
 ! D47   D(9,10,11,12)           0.0013         estimate D2E/DX2                !
 ! D48   D(9,10,11,22)         179.9988         estimate D2E/DX2                !
 ! D49   D(21,10,11,12)        179.9998         estimate D2E/DX2                !
 ! D50   D(21,10,11,22)         -0.0027         estimate D2E/DX2                !
 ! D51   D(10,11,12,7)          -0.0084         estimate D2E/DX2                !
 ! D52   D(10,11,12,23)        179.989          estimate D2E/DX2                !
 ! D53   D(22,11,12,7)         179.9941         estimate D2E/DX2                !
 ! D54   D(22,11,12,23)         -0.0085         estimate D2E/DX2                !
 ! D55   D(2,14,15,16)          59.8669         estimate D2E/DX2                !
 ! D56   D(2,14,15,17)        -121.1031         estimate D2E/DX2                !
 ! D57   D(25,14,15,16)       -177.2654         estimate D2E/DX2                !
 ! D58   D(25,14,15,17)          1.7646         estimate D2E/DX2                !
 ! D59   D(26,14,15,16)        -62.6648         estimate D2E/DX2                !
 ! D60   D(26,14,15,17)        116.3652         estimate D2E/DX2                !
 ! D61   D(14,15,16,27)        179.6002         estimate D2E/DX2                !
 ! D62   D(17,15,16,27)          0.5918         estimate D2E/DX2                !
 --------------------------------------------------------------------------------
 Trust Radius=3.00D-01 FncErr=1.00D-07 GrdErr=1.00D-06 EigMax=2.50D+02 EigMin=1.00D-04
 Number of steps in this run=    144 maximum allowed number of steps=    162.
 GradGradGradGradGradGradGradGradGradGradGradGradGradGradGradGradGradGrad

                          Input orientation:                          
 ---------------------------------------------------------------------
 Center     Atomic      Atomic             Coordinates (Angstroms)
 Number     Number       Type             X           Y           Z
 ---------------------------------------------------------------------
      1          8           0        3.268500   -1.588400    1.309300
      2          6           0        2.962600   -0.412600    1.107000
      3         16           0        4.027300    0.689600    0.076800
      4          6           0        3.166500    2.233200    0.024200
      5          6           0        3.497300    3.237900    0.929800
      6          6           0        2.831000    4.460100    0.903900
      7          6           0        1.809300    4.699200   -0.048500
      8          6           0        1.474700    3.670500   -0.982800
      9          6           0        0.453300    3.910400   -1.935700
     10          6           0       -0.213700    5.132600   -1.958900
     11          6           0        0.111800    6.133700   -1.049700
     12          6           0        1.110300    5.931200   -0.100500
     13          6           0        2.172500    2.438400   -0.931300
     14          6           0        1.672800    0.207000    1.687200
     15          6           0        0.859100   -0.644900    2.674600
     16          8           0        1.582100   -0.985800    3.782900
     17          8           0       -0.314000   -0.956800    2.478900
     18          1           0        4.272500    3.072500    1.663900
     19          1           0        3.091300    5.232900    1.612900
     20          1           0        0.193500    3.138500   -2.645900
     21          1           0       -0.990700    5.305000   -2.689200
     22          1           0       -0.414800    7.076300   -1.080600
     23          1           0        1.356400    6.714900    0.601700
     24          1           0        1.921300    1.657800   -1.635600
     25          1           0        1.024400    0.482800    0.854800
     26          1           0        1.929200    1.132900    2.202400
     27          1           0        1.079000   -1.513000    4.407700
 ---------------------------------------------------------------------
                    Distance matrix (angstroms):
                    1          2          3          4          5
     1  O    0.000000
     2  C    1.231668   0.000000
     3  S    2.698910   1.846549   0.000000
     4  C    4.033176   2.866058   1.768175   0.000000
     5  C    4.846601   3.693705   2.739040   1.392466   0.000000
     6  C    6.077837   4.878706   4.041274   2.417750   1.392264
     7  C    6.595968   5.366170   4.583897   2.815747   2.437583
     8  C    6.010613   4.822117   4.065007   2.437636   2.817107
     9  C    6.977978   5.851747   5.215092   3.743750   4.234298
    10  C    8.244919   7.087868   6.470734   4.874932   5.070108
    11  C    8.669513   7.458717   6.799880   5.069354   4.875006
    12  C    7.949198   6.718100   6.001224   4.233050   3.743414
    13  C    4.736731   3.592649   2.741323   1.393960   2.420328
    14  C    2.431569   1.544060   2.893089   3.016984   3.617846
    15  C    2.925653   2.633637   4.308938   4.542265   5.008050
    16  O    3.053812   3.065090   4.745645   5.196163   5.444980
    17  O    3.821150   3.593657   5.227581   5.321234   5.875477
    18  H    4.780978   3.764558   2.873538   2.148552   1.080368
    19  H    6.830352   5.669583   4.886438   3.395265   2.147437
    20  H    6.887875   5.861952   5.301719   4.097283   4.869354
    21  H    9.035914   7.920269   7.357513   5.837877   6.124721
    22  H    9.713668   8.501532   7.865225   6.123880   5.837769
    23  H    8.549948   7.323692   6.611616   4.867813   4.096417
    24  H    4.585324   3.590643   2.881833   2.153264   3.400260
    25  H    3.087462   2.149876   3.108932   2.888319   3.702896
    26  H    3.161776   2.157866   3.019390   2.736079   2.917100
    27  H    3.794691   3.956444   5.683363   6.132434   6.365141
                    6          7          8          9         10
     6  C    0.000000
     7  C    1.417076   0.000000
     8  C    2.454110   1.429370   0.000000
     9  C    3.744190   2.454071   1.417331   0.000000
    10  C    4.232975   2.816024   2.437458   1.392552   0.000000
    11  C    3.743199   2.437560   2.815906   2.417578   1.390969
    12  C    2.476644   1.417437   2.453977   2.807711   2.417517
    13  C    2.808710   2.454071   1.416915   2.476137   3.742810
    14  C    4.477035   4.817795   4.377668   5.322383   6.412056
    15  C    5.751938   6.072690   5.690186   6.493866   7.483297
    16  O    6.285397   6.859335   6.663675   7.612447   8.580675
    17  O    6.458673   6.548778   6.049357   6.615669   7.535577
    18  H    2.140317   3.412597   3.897475   5.314648   6.123290
    19  H    1.080582   2.165320   3.433970   4.615259   4.867324
    20  H    4.615638   3.434106   2.165733   1.080606   2.148073
    21  H    5.313155   3.896189   3.414907   2.144250   1.080180
    22  H    4.617138   3.415034   3.896056   3.392303   2.142387
    23  H    2.711069   2.165854   3.434095   3.888343   3.394931
    24  H    3.889666   3.432425   2.162536   2.705419   4.091086
    25  H    4.368653   4.382927   3.706882   4.456623   5.574086
    26  H    3.683695   4.218936   4.097741   5.197755   6.156788
    27  H    7.143112   7.680006   7.488841   8.369199   9.293474
                   11         12         13         14         15
    11  C    0.000000
    12  C    1.392476   0.000000
    13  C    4.232700   3.744082   0.000000
    14  C    6.712162   6.023184   3.476405   0.000000
    15  C    7.770347   7.142085   4.922832   1.537140   0.000000
    16  O    8.729438   7.946589   5.856398   2.413080   1.366481
    17  O    7.931426   7.491761   5.416598   2.434870   1.229530
    18  H    5.834895   4.613543   3.398109   3.869118   5.147026
    19  H    4.096132   2.710668   3.889264   5.222771   6.376398
    20  H    3.394960   3.888285   2.710431   5.436706   6.562382
    21  H    2.142478   3.392299   4.616648   7.227497   8.221522
    22  H    1.080165   2.144243   5.312864   7.694548   8.679935
    23  H    2.148009   1.080664   4.615686   6.605390   7.662302
    24  H    4.863255   4.612613   1.080961   3.634222   5.000852
    25  H    6.032630   5.532182   2.886634   1.090586   2.147255
    26  H    6.235952   5.384945   3.403469   1.090166   2.128065
    27  H    9.444083   8.702928   6.731584   3.272937   1.950792
                   16         17         18         19         20
    16  O    0.000000
    17  O    2.301402   0.000000
    18  H    5.310199   6.159177   0.000000
    19  H    6.757131   7.117472   2.462755   0.000000
    20  H    7.763216   6.579712   5.934389   5.560677   0.000000
    21  H    9.385177   8.147228   7.185737   5.930935   2.469398
    22  H    9.624900   8.786973   6.747850   4.790178   4.280942
    23  H    8.334972   8.072738   4.785288   2.495742   4.968891
    24  H    6.038528   5.363004   4.291412   4.970210   2.489673
    25  H    3.322888   2.549797   4.232179   5.235479   4.471917
    26  H    2.665961   3.078189   3.089188   4.302091   5.526400
    27  H    0.959909   2.443374   6.225246   7.574129   8.495519
                   21         22         23         24         25
    21  H    0.000000
    22  H    2.461048   0.000000
    23  H    4.280972   2.469391   0.000000
    24  H    4.784546   5.926680   5.558676   0.000000
    25  H    6.314600   7.020777   6.246067   2.896057   0.000000
    26  H    7.061160   7.183065   5.835158   3.873735   1.748519
    27  H   10.056579  10.301891   9.069781   6.876403   4.075451
                   26         27
    26  H    0.000000
    27  H    3.547813   0.000000
 Stoichiometry    C13H10O3S
 Framework group  C1[X(C13H10O3S)]
 Deg. of freedom    75
 Full point group                 C1      NOp   1
 Largest Abelian subgroup         C1      NOp   1
 Largest concise Abelian subgroup C1      NOp   1
                         Standard orientation:                         
 ---------------------------------------------------------------------
 Center     Atomic      Atomic             Coordinates (Angstroms)
 Number     Number       Type             X           Y           Z
 ---------------------------------------------------------------------
      1          8           0       -3.752936   -0.975277   -0.751746
      2          6           0       -2.582265   -0.767966   -0.429942
      3         16           0       -1.323920   -2.118634   -0.474737
      4          6           0        0.191440   -1.343972    0.004876
      5          6           0        0.601311   -1.396125    1.334631
      6          6           0        1.791436   -0.792403    1.731521
      7          6           0        2.604179   -0.119991    0.785256
      8          6           0        2.187070   -0.072680   -0.581081
      9          6           0        3.000692    0.599277   -1.527296
     10          6           0        4.189699    1.204501   -1.128338
     11          6           0        4.595653    1.158565    0.201281
     12          6           0        3.820192    0.506569    1.156557
     13          6           0        0.971396   -0.698252   -0.953163
     14          6           0       -2.092857    0.626827    0.016323
     15          6           0       -3.154292    1.721159    0.212778
     16          8           0       -4.077940    1.382791    1.161278
     17          8           0       -3.143888    2.781476   -0.409607
     18          1           0       -0.006594   -1.903039    2.069943
     19          1           0        2.100059   -0.834238    2.766247
     20          1           0        2.693321    0.640250   -2.562455
     21          1           0        4.802283    1.714178   -1.857555
     22          1           0        5.520607    1.632895    0.494925
     23          1           0        4.143793    0.475937    2.187178
     24          1           0        0.652306   -0.663476   -1.985368
     25          1           0       -1.364472    0.980804   -0.714111
     26          1           0       -1.561228    0.526005    0.962721
     27          1           0       -4.741167    2.063836    1.294438
 ---------------------------------------------------------------------
 Rotational constants (GHZ):           0.7287060           0.2271522           0.2034101
 Standard basis: def2SVP (5D, 7F)
 There are   309 symmetry adapted cartesian basis functions of A   symmetry.
 There are   292 symmetry adapted basis functions of A   symmetry.
   292 basis functions,   507 primitive gaussians,   309 cartesian basis functions
    64 alpha electrons       64 beta electrons
       nuclear repulsion energy      1203.6834530961 Hartrees.
 NAtoms=   27 NActive=   27 NUniq=   27 SFac= 1.00D+00 NAtFMM=   60 NAOKFM=F Big=F
 Integral buffers will be    131072 words long.
 Raffenetti 2 integral format.
 Two-electron integral symmetry is turned on.
 Nuclear repulsion after empirical dispersion term =     1203.6665961118 Hartrees.
 One-electron integrals computed using PRISM.
   1 Symmetry operations used in ECPInt.
 ECPInt:  NShTT=    9045 NPrTT=   34191 LenC2=    8218 LenP2D=   21820.
 LDataN:  DoStor=T MaxTD1= 4 Len=   56
 NBasis=   292 RedAO= T EigKep=  2.52D-04  NBF=   292
 NBsUse=   292 1.00D-06 EigRej= -1.00D+00 NBFU=   292
 ExpMin= 1.22D-01 ExpMax= 9.18D+03 ExpMxC= 1.38D+03 IAcc=3 IRadAn=         5 AccDes= 0.00D+00
 Harris functional with IExCor= 4639 and IRadAn=       5 diagonalized for initial guess.
 HarFok:  IExCor= 4639 AccDes= 0.00D+00 IRadAn=         5 IDoV= 1 UseB2=F ITyADJ=14
 ICtDFT=  3500011 ScaDFX=  1.000000  1.000000  1.000000  1.000000
 FoFCou: FMM=F IPFlag=           0 FMFlag=      100000 FMFlg1=           0
         NFxFlg=           0 DoJE=T BraDBF=F KetDBF=T FulRan=T
         wScrn=  0.000000 ICntrl=       500 IOpCl=  0 I1Cent=   200000004 NGrid=           0
         NMat0=    1 NMatS0=      1 NMatT0=    0 NMatD0=    1 NMtDS0=    0 NMtDT0=    0
 Petite list used in FoFCou.
 Requested convergence on RMS density matrix=1.00D-08 within 128 cycles.
 Requested convergence on MAX density matrix=1.00D-06.
 Requested convergence on             energy=1.00D-06.
 No special actions if energy rises.
 Integral accuracy reduced to 1.0D-05 until final iterations.
 Initial convergence to 1.0D-05 achieved.  Increase integral accuracy.
 SCF Done:  E(RwB97XD) =  -1124.39092918     A.U. after   17 cycles
            NFock= 17  Conv=0.43D-08     -V/T= 2.0073

 **********************************************************************

            Population analysis using the SCF Density.

 **********************************************************************

 Orbital symmetries:
       Occupied  (A) (A) (A) (A) (A) (A) (A) (A) (A) (A) (A) (A)
                 (A) (A) (A) (A) (A) (A) (A) (A) (A) (A) (A) (A)
                 (A) (A) (A) (A) (A) (A) (A) (A) (A) (A) (A) (A)
                 (A) (A) (A) (A) (A) (A) (A) (A) (A) (A) (A) (A)
                 (A) (A) (A) (A) (A) (A) (A) (A) (A) (A) (A) (A)
                 (A) (A) (A) (A)
       Virtual   (A) (A) (A) (A) (A) (A) (A) (A) (A) (A) (A) (A)
                 (A) (A) (A) (A) (A) (A) (A) (A) (A) (A) (A) (A)
                 (A) (A) (A) (A) (A) (A) (A) (A) (A) (A) (A) (A)
                 (A) (A) (A) (A) (A) (A) (A) (A) (A) (A) (A) (A)
                 (A) (A) (A) (A) (A) (A) (A) (A) (A) (A) (A) (A)
                 (A) (A) (A) (A) (A) (A) (A) (A) (A) (A) (A) (A)
                 (A) (A) (A) (A) (A) (A) (A) (A) (A) (A) (A) (A)
                 (A) (A) (A) (A) (A) (A) (A) (A) (A) (A) (A) (A)
                 (A) (A) (A) (A) (A) (A) (A) (A) (A) (A) (A) (A)
                 (A) (A) (A) (A) (A) (A) (A) (A) (A) (A) (A) (A)
                 (A) (A) (A) (A) (A) (A) (A) (A) (A) (A) (A) (A)
                 (A) (A) (A) (A) (A) (A) (A) (A) (A) (A) (A) (A)
                 (A) (A) (A) (A) (A) (A) (A) (A) (A) (A) (A) (A)
                 (A) (A) (A) (A) (A) (A) (A) (A) (A) (A) (A) (A)
                 (A) (A) (A) (A) (A) (A) (A) (A) (A) (A) (A) (A)
                 (A) (A) (A) (A) (A) (A) (A) (A) (A) (A) (A) (A)
                 (A) (A) (A) (A) (A) (A) (A) (A) (A) (A) (A) (A)
                 (A) (A) (A) (A) (A) (A) (A) (A) (A) (A) (A) (A)
                 (A) (A) (A) (A) (A) (A) (A) (A) (A) (A) (A) (A)
 The electronic state is 1-A.
 Alpha  occ. eigenvalues --  -89.03386 -19.31164 -19.27063 -19.25605 -10.45045
 Alpha  occ. eigenvalues --  -10.43327 -10.35062 -10.33856 -10.33257 -10.33226
 Alpha  occ. eigenvalues --  -10.33201 -10.32778 -10.32719 -10.32372 -10.32295
 Alpha  occ. eigenvalues --  -10.32124 -10.32049  -8.08570  -6.04007  -6.03588
 Alpha  occ. eigenvalues --   -6.03054  -1.19397  -1.14314  -1.10625  -0.99735
 Alpha  occ. eigenvalues --   -0.95233  -0.90435  -0.88658  -0.87242  -0.84114
 Alpha  occ. eigenvalues --   -0.81579  -0.74377  -0.73309  -0.71341  -0.71161
 Alpha  occ. eigenvalues --   -0.65220  -0.62709  -0.61538  -0.60406  -0.58846
 Alpha  occ. eigenvalues --   -0.57279  -0.56689  -0.55758  -0.54840  -0.54273
 Alpha  occ. eigenvalues --   -0.52720  -0.52529  -0.51786  -0.50851  -0.50634
 Alpha  occ. eigenvalues --   -0.48965  -0.47905  -0.46631  -0.46163  -0.44488
 Alpha  occ. eigenvalues --   -0.43947  -0.42385  -0.41247  -0.39206  -0.37316
 Alpha  occ. eigenvalues --   -0.36196  -0.34589  -0.33499  -0.30658
 Alpha virt. eigenvalues --   -0.01188   0.02273   0.03898   0.06229   0.07276
 Alpha virt. eigenvalues --    0.11135   0.12275   0.13780   0.14223   0.15097
 Alpha virt. eigenvalues --    0.15276   0.17694   0.18613   0.18981   0.20417
 Alpha virt. eigenvalues --    0.20854   0.22557   0.24464   0.25185   0.26702
 Alpha virt. eigenvalues --    0.29124   0.29740   0.32367   0.32957   0.34068
 Alpha virt. eigenvalues --    0.34269   0.35904   0.36414   0.37746   0.38707
 Alpha virt. eigenvalues --    0.40315   0.40974   0.43819   0.44632   0.45969
 Alpha virt. eigenvalues --    0.46956   0.48338   0.49309   0.50716   0.51531
 Alpha virt. eigenvalues --    0.51576   0.52530   0.53421   0.54518   0.55174
 Alpha virt. eigenvalues --    0.55877   0.56313   0.57509   0.58073   0.58107
 Alpha virt. eigenvalues --    0.59181   0.59690   0.61935   0.62521   0.63581
 Alpha virt. eigenvalues --    0.64709   0.66084   0.67689   0.68229   0.68622
 Alpha virt. eigenvalues --    0.69768   0.70580   0.70956   0.71434   0.72071
 Alpha virt. eigenvalues --    0.72417   0.72955   0.73225   0.73890   0.75502
 Alpha virt. eigenvalues --    0.75794   0.75966   0.77599   0.78449   0.79685
 Alpha virt. eigenvalues --    0.80596   0.81695   0.82078   0.83171   0.83941
 Alpha virt. eigenvalues --    0.84657   0.85567   0.87111   0.87319   0.88402
 Alpha virt. eigenvalues --    0.89434   0.91427   0.91615   0.94123   0.96198
 Alpha virt. eigenvalues --    0.97283   1.00585   1.02609   1.03461   1.05167
 Alpha virt. eigenvalues --    1.06518   1.09489   1.11838   1.14101   1.15978
 Alpha virt. eigenvalues --    1.17255   1.17786   1.19747   1.20710   1.22640
 Alpha virt. eigenvalues --    1.24194   1.25297   1.25574   1.28633   1.29965
 Alpha virt. eigenvalues --    1.30572   1.31111   1.32345   1.32709   1.32920
 Alpha virt. eigenvalues --    1.33816   1.35797   1.36493   1.37497   1.37921
 Alpha virt. eigenvalues --    1.38894   1.42386   1.45591   1.49237   1.51356
 Alpha virt. eigenvalues --    1.56862   1.58260   1.60630   1.62000   1.66018
 Alpha virt. eigenvalues --    1.67503   1.71395   1.71701   1.72578   1.73209
 Alpha virt. eigenvalues --    1.73945   1.75589   1.76564   1.78682   1.79142
 Alpha virt. eigenvalues --    1.80083   1.80843   1.82387   1.83410   1.84245
 Alpha virt. eigenvalues --    1.84591   1.85465   1.86213   1.88028   1.89370
 Alpha virt. eigenvalues --    1.90805   1.92130   1.94184   1.95604   1.97176
 Alpha virt. eigenvalues --    2.00356   2.00626   2.01469   2.02591   2.05736
 Alpha virt. eigenvalues --    2.06577   2.07540   2.09427   2.11522   2.13306
 Alpha virt. eigenvalues --    2.14231   2.15688   2.18630   2.19834   2.20727
 Alpha virt. eigenvalues --    2.22670   2.22898   2.23860   2.26350   2.30106
 Alpha virt. eigenvalues --    2.30686   2.32277   2.33848   2.36431   2.37494
 Alpha virt. eigenvalues --    2.39706   2.40452   2.42460   2.44149   2.46777
 Alpha virt. eigenvalues --    2.48061   2.50200   2.50377   2.54422   2.55981
 Alpha virt. eigenvalues --    2.60991   2.63599   2.64651   2.69032   2.70571
 Alpha virt. eigenvalues --    2.70793   2.72140   2.73584   2.75375   2.78344
 Alpha virt. eigenvalues --    2.79912   2.80250   2.83001   2.83373   2.87467
 Alpha virt. eigenvalues --    2.88698   2.92434   2.96491   2.96726   2.97571
 Alpha virt. eigenvalues --    2.98448   3.01835   3.02259   3.12745   3.14202
 Alpha virt. eigenvalues --    3.15627   3.19360   3.21890   3.25958   3.26267
 Alpha virt. eigenvalues --    3.29513   3.32882   3.57814   3.58674   3.64959
 Alpha virt. eigenvalues --    3.69797   3.71077   3.84006
          Condensed to atoms (all electrons):
               1          2          3          4          5          6
     1  O    7.670870   0.687211  -0.056061   0.001468   0.000006  -0.000000
     2  C    0.687211   4.817552   0.290257  -0.021906  -0.004684   0.000129
     3  S   -0.056061   0.290257  15.751304   0.217296  -0.065609   0.003715
     4  C    0.001468  -0.021906   0.217296   5.559935   0.222302   0.084235
     5  C    0.000006  -0.004684  -0.065609   0.222302   5.036803   0.348205
     6  C   -0.000000   0.000129   0.003715   0.084235   0.348205   5.088556
     7  C    0.000000  -0.000047   0.000564  -0.139943   0.079163   0.294759
     8  C   -0.000000   0.000147   0.004321   0.077135  -0.100483  -0.000405
     9  C   -0.000000   0.000003  -0.000193   0.017035  -0.002718   0.016643
    10  C    0.000000  -0.000000   0.000001  -0.001339   0.000385  -0.001575
    11  C   -0.000000  -0.000000  -0.000000   0.000303  -0.001073   0.014139
    12  C    0.000000  -0.000000   0.000012  -0.000960   0.013530  -0.105964
    13  C    0.000023  -0.009823  -0.066347   0.274510   0.051023  -0.101795
    14  C   -0.121003   0.146184  -0.132766   0.005813   0.000058  -0.000542
    15  C    0.028481   0.009509   0.005153  -0.000037  -0.000149  -0.000001
    16  O   -0.002093   0.007991  -0.000064  -0.000008  -0.000003   0.000000
    17  O   -0.000045   0.000419  -0.000019   0.000003   0.000000   0.000000
    18  H   -0.000019  -0.000187   0.002873  -0.072895   0.442259  -0.049889
    19  H   -0.000000   0.000004  -0.000158   0.015306  -0.065960   0.458798
    20  H    0.000000  -0.000001  -0.000025   0.000876  -0.000062  -0.000140
    21  H   -0.000000  -0.000000  -0.000000   0.000009  -0.000001   0.000028
    22  H    0.000000   0.000000   0.000000  -0.000001   0.000007  -0.000344
    23  H   -0.000000  -0.000000  -0.000000  -0.000058   0.000684  -0.017353
    24  H   -0.000041   0.000022   0.004133  -0.068278   0.013323  -0.001822
    25  H    0.001319   0.007195   0.000207   0.003552  -0.000932   0.000086
    26  H    0.002442   0.010806  -0.000213   0.005666  -0.000504   0.001678
    27  H    0.000105  -0.000452   0.000011   0.000001   0.000000  -0.000000
               7          8          9         10         11         12
     1  O    0.000000  -0.000000  -0.000000   0.000000  -0.000000   0.000000
     2  C   -0.000047   0.000147   0.000003  -0.000000  -0.000000  -0.000000
     3  S    0.000564   0.004321  -0.000193   0.000001  -0.000000   0.000012
     4  C   -0.139943   0.077135   0.017035  -0.001339   0.000303  -0.000960
     5  C    0.079163  -0.100483  -0.002718   0.000385  -0.001073   0.013530
     6  C    0.294759  -0.000405   0.016643  -0.001575   0.014139  -0.105964
     7  C    5.329502   0.184765  -0.007511  -0.106416   0.059241   0.327998
     8  C    0.184765   5.261321   0.335445   0.056678  -0.108792  -0.000558
     9  C   -0.007511   0.335445   5.088628   0.353123   0.062195  -0.109208
    10  C   -0.106416   0.056678   0.353123   5.015591   0.277520   0.062483
    11  C    0.059241  -0.108792   0.062195   0.277520   5.014539   0.352477
    12  C    0.327998  -0.000558  -0.109208   0.062483   0.352477   5.090715
    13  C    0.008453   0.326327  -0.112323   0.015081  -0.001458   0.014815
    14  C    0.000068  -0.000455  -0.000025   0.000001  -0.000000   0.000003
    15  C   -0.000006   0.000031   0.000001  -0.000000   0.000000  -0.000000
    16  O   -0.000000   0.000000   0.000000  -0.000000   0.000000  -0.000000
    17  O   -0.000000   0.000001   0.000000  -0.000000   0.000000  -0.000000
    18  H    0.013296  -0.001340   0.000027   0.000000   0.000006  -0.000337
    19  H   -0.069136   0.013758  -0.000176  -0.000043   0.000692  -0.016418
    20  H    0.013286  -0.066122   0.454396  -0.062100   0.012779  -0.001647
    21  H   -0.001177   0.013401  -0.060820   0.448255  -0.067239   0.012610
    22  H    0.013284  -0.001148   0.012652  -0.067045   0.448027  -0.061073
    23  H   -0.064549   0.013712  -0.001610   0.012753  -0.062774   0.452926
    24  H    0.014080  -0.048597  -0.017908   0.000648  -0.000040  -0.000178
    25  H   -0.000053   0.000471   0.000026  -0.000008   0.000001  -0.000005
    26  H   -0.000322   0.000248   0.000018   0.000000   0.000000  -0.000024
    27  H    0.000000  -0.000000  -0.000000   0.000000  -0.000000   0.000000
              13         14         15         16         17         18
     1  O    0.000023  -0.121003   0.028481  -0.002093  -0.000045  -0.000019
     2  C   -0.009823   0.146184   0.009509   0.007991   0.000419  -0.000187
     3  S   -0.066347  -0.132766   0.005153  -0.000064  -0.000019   0.002873
     4  C    0.274510   0.005813  -0.000037  -0.000008   0.000003  -0.072895
     5  C    0.051023   0.000058  -0.000149  -0.000003   0.000000   0.442259
     6  C   -0.101795  -0.000542  -0.000001   0.000000   0.000000  -0.049889
     7  C    0.008453   0.000068  -0.000006  -0.000000  -0.000000   0.013296
     8  C    0.326327  -0.000455   0.000031   0.000000   0.000001  -0.001340
     9  C   -0.112323  -0.000025   0.000001   0.000000   0.000000   0.000027
    10  C    0.015081   0.000001  -0.000000  -0.000000  -0.000000   0.000000
    11  C   -0.001458  -0.000000   0.000000   0.000000   0.000000   0.000006
    12  C    0.014815   0.000003  -0.000000  -0.000000  -0.000000  -0.000337
    13  C    5.142031   0.002365  -0.000329  -0.000001  -0.000016   0.013689
    14  C    0.002365   5.495128   0.179715  -0.125460  -0.096442   0.000209
    15  C   -0.000329   0.179715   4.507139   0.369798   0.695684  -0.000021
    16  O   -0.000001  -0.125460   0.369798   7.715493  -0.072244   0.000001
    17  O   -0.000016  -0.096442   0.695684  -0.072244   7.702304  -0.000000
    18  H    0.013689   0.000209  -0.000021   0.000001  -0.000000   0.642347
    19  H   -0.002144  -0.000014   0.000000   0.000000   0.000000  -0.011822
    20  H   -0.016905  -0.000008   0.000000   0.000000   0.000000  -0.000000
    21  H   -0.000365  -0.000000  -0.000000  -0.000000  -0.000000   0.000000
    22  H    0.000030   0.000000   0.000000  -0.000000   0.000000  -0.000000
    23  H   -0.000176  -0.000000  -0.000000   0.000000  -0.000000   0.000000
    24  H    0.440738  -0.000087  -0.000023  -0.000000  -0.000001  -0.000247
    25  H    0.000633   0.322864   0.000549   0.004238   0.011965  -0.000055
    26  H   -0.003475   0.312279  -0.001430   0.005788   0.001300   0.000502
    27  H    0.000000   0.013156  -0.005384   0.315898   0.004473  -0.000000
              19         20         21         22         23         24
     1  O   -0.000000   0.000000  -0.000000   0.000000  -0.000000  -0.000041
     2  C    0.000004  -0.000001  -0.000000   0.000000  -0.000000   0.000022
     3  S   -0.000158  -0.000025  -0.000000   0.000000  -0.000000   0.004133
     4  C    0.015306   0.000876   0.000009  -0.000001  -0.000058  -0.068278
     5  C   -0.065960  -0.000062  -0.000001   0.000007   0.000684   0.013323
     6  C    0.458798  -0.000140   0.000028  -0.000344  -0.017353  -0.001822
     7  C   -0.069136   0.013286  -0.001177   0.013284  -0.064549   0.014080
     8  C    0.013758  -0.066122   0.013401  -0.001148   0.013712  -0.048597
     9  C   -0.000176   0.454396  -0.060820   0.012652  -0.001610  -0.017908
    10  C   -0.000043  -0.062100   0.448255  -0.067045   0.012753   0.000648
    11  C    0.000692   0.012779  -0.067239   0.448027  -0.062774  -0.000040
    12  C   -0.016418  -0.001647   0.012610  -0.061073   0.452926  -0.000178
    13  C   -0.002144  -0.016905  -0.000365   0.000030  -0.000176   0.440738
    14  C   -0.000014  -0.000008  -0.000000   0.000000  -0.000000  -0.000087
    15  C    0.000000   0.000000  -0.000000   0.000000  -0.000000  -0.000023
    16  O    0.000000   0.000000  -0.000000  -0.000000   0.000000  -0.000000
    17  O    0.000000   0.000000  -0.000000   0.000000  -0.000000  -0.000001
    18  H   -0.011822  -0.000000   0.000000  -0.000000   0.000000  -0.000247
    19  H    0.660209   0.000006  -0.000001  -0.000003   0.003838   0.000019
    20  H    0.000006   0.660531  -0.011199  -0.000222   0.000018   0.003964
    21  H   -0.000001  -0.011199   0.653657  -0.011695  -0.000222  -0.000003
    22  H   -0.000003  -0.000222  -0.011695   0.654495  -0.011255  -0.000001
    23  H    0.003838   0.000018  -0.000222  -0.011255   0.664018   0.000005
    24  H    0.000019   0.003964  -0.000003  -0.000001   0.000005   0.648083
    25  H    0.000002   0.000024   0.000000  -0.000000   0.000000   0.000904
    26  H    0.000041   0.000001   0.000000  -0.000000  -0.000000  -0.000103
    27  H    0.000000  -0.000000   0.000000  -0.000000  -0.000000   0.000000
              25         26         27
     1  O    0.001319   0.002442   0.000105
     2  C    0.007195   0.010806  -0.000452
     3  S    0.000207  -0.000213   0.000011
     4  C    0.003552   0.005666   0.000001
     5  C   -0.000932  -0.000504   0.000000
     6  C    0.000086   0.001678  -0.000000
     7  C   -0.000053  -0.000322   0.000000
     8  C    0.000471   0.000248  -0.000000
     9  C    0.000026   0.000018  -0.000000
    10  C   -0.000008   0.000000   0.000000
    11  C    0.000001   0.000000  -0.000000
    12  C   -0.000005  -0.000024   0.000000
    13  C    0.000633  -0.003475   0.000000
    14  C    0.322864   0.312279   0.013156
    15  C    0.000549  -0.001430  -0.005384
    16  O    0.004238   0.005788   0.315898
    17  O    0.011965   0.001300   0.004473
    18  H   -0.000055   0.000502  -0.000000
    19  H    0.000002   0.000041   0.000000
    20  H    0.000024   0.000001  -0.000000
    21  H    0.000000   0.000000   0.000000
    22  H   -0.000000  -0.000000  -0.000000
    23  H    0.000000  -0.000000  -0.000000
    24  H    0.000904  -0.000103   0.000000
    25  H    0.562009  -0.001836  -0.000428
    26  H   -0.001836   0.584231  -0.000578
    27  H   -0.000428  -0.000578   0.470110
 Mulliken charges:
               1
     1  O   -0.212663
     2  C    0.059672
     3  S    0.041610
     4  C   -0.180019
     5  C    0.034429
     6  C   -0.031142
     7  C    0.050701
     8  C    0.040139
     9  C   -0.027700
    10  C   -0.003993
    11  C   -0.000544
    12  C   -0.031194
    13  C    0.025437
    14  C   -0.001042
    15  C    0.211320
    16  O   -0.219333
    17  O   -0.247382
    18  H    0.021603
    19  H    0.013203
    20  H    0.012550
    21  H    0.024762
    22  H    0.024292
    23  H    0.010040
    24  H    0.011411
    25  H    0.087271
    26  H    0.083486
    27  H    0.203087
 Sum of Mulliken charges =  -0.00000
 Mulliken charges with hydrogens summed into heavy atoms:
               1
     1  O   -0.212663
     2  C    0.059672
     3  S    0.041610
     4  C   -0.180019
     5  C    0.056032
     6  C   -0.017940
     7  C    0.050701
     8  C    0.040139
     9  C   -0.015150
    10  C    0.020769
    11  C    0.023747
    12  C   -0.021155
    13  C    0.036849
    14  C    0.169715
    15  C    0.211320
    16  O   -0.016246
    17  O   -0.247382
 Electronic spatial extent (au):  <R**2>=           5340.2225
 Charge=             -0.0000 electrons
 Dipole moment (field-independent basis, Debye):
    X=              4.1144    Y=              0.9980    Z=              2.2604  Tot=              4.7994
 Quadrupole moment (field-independent basis, Debye-Ang):
   XX=           -101.5201   YY=           -113.7060   ZZ=            -95.4507
   XY=             -0.4450   XZ=             -7.9205   YZ=              0.8623
 Traceless Quadrupole moment (field-independent basis, Debye-Ang):
   XX=              2.0388   YY=            -10.1470   ZZ=              8.1082
   XY=             -0.4450   XZ=             -7.9205   YZ=              0.8623
 Octapole moment (field-independent basis, Debye-Ang**2):
  XXX=             -2.0676  YYY=             -2.6169  ZZZ=              5.0415  XYY=             -2.9032
  XXY=             70.9730  XXZ=             43.8964  XZZ=              0.3073  YZZ=              7.2912
  YYZ=             17.5695  XYZ=            -20.8120
 Hexadecapole moment (field-independent basis, Debye-Ang**3):
 XXXX=          -4664.0409 YYYY=          -1349.5848 ZZZZ=           -634.4543 XXXY=           -113.2544
 XXXZ=           -173.9034 YYYX=             -4.6851 YYYZ=             39.4455 ZZZX=             -8.0547
 ZZZY=             -9.8913 XXYY=          -1032.5793 XXZZ=           -882.7075 YYZZ=           -313.3454
 XXYZ=             59.6895 YYXZ=            -75.4962 ZZXY=            -20.9058
 N-N= 1.203666596112D+03 E-N=-5.043744904319D+03  KE= 1.116192182821D+03
   1 Symmetry operations used in ECPInt.
 ECPInt:  NShTT=    9045 NPrTT=   34191 LenC2=    8218 LenP2D=   21820.
 LDataN:  DoStor=T MaxTD1= 5 Len=  102
 Calling FoFJK, ICntrl=      2127 FMM=F ISym2X=0 I1Cent= 0 IOpClX= 0 NMat=1 NMatS=1 NMatT=0.
 ***** Axes restored to original set *****
 -------------------------------------------------------------------
 Center     Atomic                   Forces (Hartrees/Bohr)
 Number     Number              X              Y              Z
 -------------------------------------------------------------------
      1        8          -0.007673942    0.060662084   -0.016390281
      2        6           0.001424293   -0.046182918    0.017998911
      3       16          -0.002148563   -0.021978613    0.007678954
      4        6          -0.019109409   -0.010857964   -0.019189346
      5        6          -0.008076405    0.031952885    0.009016275
      6        6           0.006204523   -0.021805479   -0.005848754
      7        6          -0.000363991    0.002410526    0.001104467
      8        6           0.000191423   -0.000708362   -0.000483764
      9        6          -0.006905218    0.020155518    0.003980322
     10        6           0.008763353   -0.027750373   -0.006197502
     11        6           0.018988547    0.003654774    0.022262156
     12        6          -0.013983676   -0.002877828   -0.016442692
     13        6           0.010713214    0.005979907    0.013818827
     14        6           0.005297021   -0.009225603    0.005481217
     15        6          -0.025642048   -0.022125931   -0.000904304
     16        8          -0.004362237    0.017076659   -0.027762587
     17        8           0.051146328    0.012686258    0.013787338
     18        1           0.006157189   -0.002468183    0.005120338
     19        1           0.001935014    0.005956635    0.005243219
     20        1          -0.001533856   -0.006318912   -0.005216940
     21        1          -0.006009893    0.000734132   -0.005964501
     22        1          -0.003835446    0.007641847    0.000215164
     23        1           0.002378539    0.005558614    0.005639605
     24        1          -0.001087780   -0.006332345   -0.005035911
     25        1          -0.005147285    0.000520249   -0.002632791
     26        1           0.003033504    0.007394152    0.002482660
     27        1          -0.010353197   -0.003751728   -0.001760080
 -------------------------------------------------------------------
 Cartesian Forces:  Max     0.060662084 RMS     0.015187108

 GradGradGradGradGradGradGradGradGradGradGradGradGradGradGradGradGradGrad
 Berny optimization.
 FormGI is forming the generalized inverse of G from B-inverse, IUseBI=4.
 Internal  Forces:  Max     0.062508354 RMS     0.009612152
 Search for a local minimum.
 Step number   1 out of a maximum of  144
 All quantities printed in internal units (Hartrees-Bohrs-Radians)
 Mixed Optimization -- RFO/linear search
 Second derivative matrix not updated -- first step.
 ITU=  0
     Eigenvalues ---    0.00230   0.00230   0.00230   0.00275   0.00756
     Eigenvalues ---    0.00791   0.01810   0.01828   0.01830   0.01901
     Eigenvalues ---    0.02005   0.02011   0.02021   0.02024   0.02027
     Eigenvalues ---    0.02046   0.02135   0.02168   0.02179   0.02190
     Eigenvalues ---    0.02195   0.02200   0.04082   0.06084   0.10582
     Eigenvalues ---    0.13656   0.16000   0.16000   0.16000   0.16000
     Eigenvalues ---    0.16000   0.16000   0.16000   0.16000   0.22000
     Eigenvalues ---    0.22072   0.22291   0.22696   0.22768   0.23525
     Eigenvalues ---    0.24362   0.24747   0.24998   0.24998   0.24999
     Eigenvalues ---    0.25000   0.25000   0.25000   0.28162   0.28774
     Eigenvalues ---    0.28793   0.34745   0.34793   0.35878   0.35914
     Eigenvalues ---    0.35921   0.35924   0.35950   0.35973   0.35974
     Eigenvalues ---    0.37165   0.39961   0.40500   0.42128   0.42577
     Eigenvalues ---    0.45364   0.45519   0.45583   0.45642   0.46829
     Eigenvalues ---    0.46984   0.51659   0.55493   0.90395   0.91283
 RFO step:  Lambda=-2.30320497D-02 EMin= 2.30000000D-03
 Linear search not attempted -- first point.
 Iteration  1 RMS(Cart)=  0.04896029 RMS(Int)=  0.00079196
 Iteration  2 RMS(Cart)=  0.00102615 RMS(Int)=  0.00016726
 Iteration  3 RMS(Cart)=  0.00000216 RMS(Int)=  0.00016725
 Iteration  4 RMS(Cart)=  0.00000000 RMS(Int)=  0.00016725
 Variable       Old X    -DE/DX   Delta X   Delta X   Delta X     New X
                                 (Linear)    (Quad)   (Total)
    R1        2.32751  -0.06251   0.00000  -0.06743  -0.06743   2.26008
    R2        3.48947  -0.02004   0.00000  -0.07994  -0.07994   3.40954
    R3        2.91785  -0.01488   0.00000  -0.04886  -0.04886   2.86899
    R4        3.34137   0.00695   0.00000   0.02235   0.02235   3.36372
    R5        2.63138   0.02055   0.00000   0.04208   0.04207   2.67345
    R6        2.63420  -0.01224   0.00000  -0.02476  -0.02476   2.60944
    R7        2.63100  -0.01529   0.00000  -0.03098  -0.03098   2.60001
    R8        2.04160   0.00828   0.00000   0.02163   0.02163   2.06323
    R9        2.67789   0.00211   0.00000   0.00442   0.00442   2.68230
   R10        2.04200   0.00817   0.00000   0.02136   0.02136   2.06337
   R11        2.70112   0.00143   0.00000   0.00272   0.00273   2.70385
   R12        2.67857   0.00090   0.00000   0.00188   0.00188   2.68045
   R13        2.67837   0.00144   0.00000   0.00309   0.00310   2.68146
   R14        2.67758   0.00082   0.00000   0.00173   0.00174   2.67932
   R15        2.63154  -0.01533   0.00000  -0.03105  -0.03105   2.60049
   R16        2.04205   0.00831   0.00000   0.02174   0.02174   2.06379
   R17        2.62855   0.01903   0.00000   0.03868   0.03867   2.66722
   R18        2.04124   0.00847   0.00000   0.02214   0.02214   2.06338
   R19        2.63140  -0.01468   0.00000  -0.02976  -0.02977   2.60163
   R20        2.04122   0.00853   0.00000   0.02229   0.02229   2.06351
   R21        2.04216   0.00824   0.00000   0.02155   0.02155   2.06371
   R22        2.04272   0.00811   0.00000   0.02123   0.02123   2.06395
   R23        2.90477  -0.01855   0.00000  -0.05970  -0.05970   2.84508
   R24        2.06091   0.00520   0.00000   0.01404   0.01404   2.07495
   R25        2.06012   0.00817   0.00000   0.02201   0.02201   2.08213
   R26        2.58228  -0.03505   0.00000  -0.06496  -0.06496   2.51731
   R27        2.32347  -0.05421   0.00000  -0.05793  -0.05793   2.26555
   R28        1.81396   0.00634   0.00000   0.01097   0.01097   1.82494
    A1        2.11561  -0.01221   0.00000  -0.04479  -0.04487   2.07073
    A2        2.12801   0.01099   0.00000   0.04020   0.04010   2.16811
    A3        2.03953   0.00121   0.00000   0.00438   0.00429   2.04383
    A4        1.83069  -0.00924   0.00000  -0.03385  -0.03385   1.79685
    A5        2.08850   0.00096   0.00000   0.00312   0.00310   2.09159
    A6        2.08984   0.00054   0.00000   0.00158   0.00156   2.09140
    A7        2.10480  -0.00151   0.00000  -0.00484  -0.00487   2.09992
    A8        2.10320  -0.00087   0.00000  -0.00310  -0.00311   2.10009
    A9        2.09660  -0.00091   0.00000  -0.00582  -0.00581   2.09079
   A10        2.08338   0.00178   0.00000   0.00892   0.00892   2.09230
   A11        2.10095   0.00180   0.00000   0.00673   0.00673   2.10768
   A12        2.09477  -0.00076   0.00000  -0.00260  -0.00260   2.09217
   A13        2.08746  -0.00104   0.00000  -0.00413  -0.00413   2.08333
   A14        2.07905  -0.00060   0.00000  -0.00314  -0.00313   2.07591
   A15        2.12570   0.00104   0.00000   0.00485   0.00484   2.13054
   A16        2.07843  -0.00044   0.00000  -0.00171  -0.00171   2.07673
   A17        2.07869   0.00034   0.00000   0.00103   0.00103   2.07972
   A18        2.07919  -0.00012   0.00000  -0.00109  -0.00107   2.07812
   A19        2.12530  -0.00022   0.00000   0.00005   0.00004   2.12534
   A20        2.10010   0.00026   0.00000   0.00089   0.00089   2.10099
   A21        2.08773  -0.00079   0.00000  -0.00406  -0.00406   2.08366
   A22        2.09536   0.00053   0.00000   0.00317   0.00317   2.09853
   A23        2.10447  -0.00047   0.00000  -0.00156  -0.00156   2.10291
   A24        2.08965  -0.00044   0.00000  -0.00294  -0.00294   2.08671
   A25        2.08907   0.00092   0.00000   0.00449   0.00449   2.09357
   A26        2.10447  -0.00016   0.00000  -0.00030  -0.00030   2.10417
   A27        2.08894   0.00069   0.00000   0.00347   0.00348   2.09242
   A28        2.08977  -0.00053   0.00000  -0.00318  -0.00317   2.08659
   A29        2.10021   0.00047   0.00000   0.00164   0.00164   2.10185
   A30        2.08769  -0.00096   0.00000  -0.00480  -0.00480   2.08290
   A31        2.09529   0.00050   0.00000   0.00316   0.00316   2.09844
   A32        2.09913   0.00130   0.00000   0.00537   0.00538   2.10451
   A33        2.10136  -0.00161   0.00000  -0.00791  -0.00791   2.09344
   A34        2.08268   0.00031   0.00000   0.00254   0.00254   2.08521
   A35        2.05011  -0.01410   0.00000  -0.06108  -0.06115   1.98896
   A36        1.88737   0.00587   0.00000   0.02280   0.02212   1.90950
   A37        1.89857   0.00277   0.00000   0.01135   0.01158   1.91015
   A38        1.89201   0.00158   0.00000  -0.00529  -0.00547   1.88654
   A39        1.86673   0.00608   0.00000   0.03049   0.03063   1.89736
   A40        1.86059  -0.00135   0.00000   0.00709   0.00681   1.86740
   A41        1.95970  -0.00263   0.00000  -0.00992  -0.01042   1.94928
   A42        2.14529   0.00715   0.00000   0.02593   0.02539   2.17068
   A43        2.17806  -0.00454   0.00000  -0.01692  -0.01739   2.16067
   A44        1.96885  -0.01658   0.00000  -0.09061  -0.09061   1.87824
    D1        3.10686  -0.00006   0.00000  -0.00404  -0.00354   3.10332
    D2       -0.02575   0.00049   0.00000   0.02116   0.02067  -0.00508
    D3        0.12740  -0.00067   0.00000   0.00626   0.00630   0.13370
    D4       -2.01941   0.00258   0.00000   0.03885   0.03919  -1.98021
    D5        2.24960  -0.00041   0.00000   0.01241   0.01248   2.26208
    D6       -3.02325  -0.00136   0.00000  -0.01961  -0.01987  -3.04312
    D7        1.11313   0.00190   0.00000   0.01298   0.01302   1.12615
    D8       -0.90105  -0.00109   0.00000  -0.01346  -0.01369  -0.91474
    D9        1.66338  -0.00047   0.00000  -0.01780  -0.01778   1.64560
   D10       -1.48927  -0.00106   0.00000  -0.03161  -0.03163  -1.52089
   D11        3.14140  -0.00037   0.00000  -0.00887  -0.00886   3.13254
   D12       -0.00559  -0.00031   0.00000  -0.00752  -0.00751  -0.01311
   D13        0.01096   0.00021   0.00000   0.00502   0.00502   0.01598
   D14       -3.13604   0.00027   0.00000   0.00637   0.00636  -3.12967
   D15        3.14054   0.00034   0.00000   0.00776   0.00775  -3.13490
   D16        0.00641   0.00027   0.00000   0.00635   0.00636   0.01276
   D17       -0.01221  -0.00024   0.00000  -0.00613  -0.00612  -0.01833
   D18        3.13684  -0.00031   0.00000  -0.00753  -0.00751   3.12933
   D19       -0.00363  -0.00001   0.00000  -0.00038  -0.00038  -0.00401
   D20        3.13730   0.00001   0.00000   0.00008   0.00009   3.13739
   D21       -3.13987  -0.00007   0.00000  -0.00167  -0.00168  -3.14155
   D22        0.00107  -0.00004   0.00000  -0.00121  -0.00121  -0.00014
   D23       -0.00228  -0.00011   0.00000  -0.00301  -0.00300  -0.00528
   D24        3.13990  -0.00004   0.00000  -0.00131  -0.00129   3.13861
   D25        3.13997  -0.00014   0.00000  -0.00347  -0.00347   3.13650
   D26       -0.00103  -0.00006   0.00000  -0.00177  -0.00176  -0.00279
   D27       -3.14094   0.00009   0.00000   0.00196   0.00197  -3.13897
   D28        0.00101   0.00009   0.00000   0.00193   0.00194   0.00294
   D29        0.00008   0.00002   0.00000   0.00031   0.00031   0.00039
   D30       -3.14116   0.00002   0.00000   0.00027   0.00028  -3.14088
   D31        3.14110  -0.00006   0.00000  -0.00125  -0.00126   3.13983
   D32       -0.00045  -0.00005   0.00000  -0.00117  -0.00118  -0.00163
   D33        0.00009   0.00002   0.00000   0.00045   0.00045   0.00054
   D34       -3.14146   0.00002   0.00000   0.00053   0.00053  -3.14092
   D35       -0.00020  -0.00005   0.00000  -0.00096  -0.00096  -0.00117
   D36       -3.14148  -0.00002   0.00000  -0.00035  -0.00035   3.14135
   D37        3.14103  -0.00004   0.00000  -0.00092  -0.00093   3.14010
   D38       -0.00025  -0.00002   0.00000  -0.00032  -0.00032  -0.00058
   D39        0.00617   0.00013   0.00000   0.00267   0.00269   0.00886
   D40        3.14038   0.00018   0.00000   0.00402   0.00403  -3.13877
   D41       -3.13506   0.00013   0.00000   0.00264   0.00266  -3.13241
   D42       -0.00085   0.00018   0.00000   0.00399   0.00400   0.00315
   D43        0.00016   0.00004   0.00000   0.00085   0.00085   0.00101
   D44       -3.14141   0.00003   0.00000   0.00059   0.00059  -3.14082
   D45        3.14143   0.00001   0.00000   0.00024   0.00024  -3.14151
   D46       -0.00013  -0.00000   0.00000  -0.00002  -0.00002  -0.00015
   D47        0.00002  -0.00000   0.00000  -0.00008  -0.00008  -0.00005
   D48        3.14157  -0.00002   0.00000  -0.00040  -0.00040   3.14118
   D49        3.14159   0.00001   0.00000   0.00018   0.00018  -3.14141
   D50       -0.00005  -0.00001   0.00000  -0.00013  -0.00014  -0.00018
   D51       -0.00015  -0.00002   0.00000  -0.00058  -0.00058  -0.00073
   D52        3.14140  -0.00003   0.00000  -0.00066  -0.00066   3.14074
   D53        3.14149  -0.00001   0.00000  -0.00026  -0.00026   3.14123
   D54       -0.00015  -0.00002   0.00000  -0.00034  -0.00034  -0.00049
   D55        1.04487   0.00117   0.00000   0.04540   0.04518   1.09005
   D56       -2.11365  -0.00061   0.00000  -0.01163  -0.01225  -2.12590
   D57       -3.09386   0.00006   0.00000   0.02692   0.02738  -3.06649
   D58        0.03080  -0.00172   0.00000  -0.03011  -0.03005   0.00075
   D59       -1.09371   0.00234   0.00000   0.04799   0.04835  -1.04536
   D60        2.03096   0.00056   0.00000  -0.00904  -0.00908   2.02188
   D61        3.13462  -0.00021   0.00000  -0.01465  -0.01402   3.12059
   D62        0.01033   0.00147   0.00000   0.04315   0.04252   0.05285
         Item               Value     Threshold  Converged?
 Maximum Force            0.062508     0.000450     NO 
 RMS     Force            0.009612     0.000300     NO 
 Maximum Displacement     0.206286     0.001800     NO 
 RMS     Displacement     0.049108     0.001200     NO 
 Predicted change in Energy=-1.230781D-02
 GradGradGradGradGradGradGradGradGradGradGradGradGradGradGradGradGradGrad

                          Input orientation:                          
 ---------------------------------------------------------------------
 Center     Atomic      Atomic             Coordinates (Angstroms)
 Number     Number       Type             X           Y           Z
 ---------------------------------------------------------------------
      1          8           0        3.239636   -1.526411    1.305660
      2          6           0        2.933845   -0.385122    1.120381
      3         16           0        3.997569    0.637710    0.082296
      4          6           0        3.134655    2.193933    0.038020
      5          6           0        3.473043    3.212927    0.959216
      6          6           0        2.819852    4.423431    0.927032
      7          6           0        1.801829    4.673809   -0.029878
      8          6           0        1.467028    3.647748   -0.969207
      9          6           0        0.452258    3.894250   -1.929912
     10          6           0       -0.201966    5.104625   -1.956166
     11          6           0        0.127729    6.117083   -1.029679
     12          6           0        1.108253    5.909842   -0.085756
     13          6           0        2.158644    2.411255   -0.914315
     14          6           0        1.673980    0.261051    1.668242
     15          6           0        0.909622   -0.608675    2.630538
     16          8           0        1.627465   -0.889584    3.716951
     17          8           0       -0.232110   -0.942402    2.480948
     18          1           0        4.253875    3.035770    1.701494
     19          1           0        3.084251    5.203296    1.644052
     20          1           0        0.193912    3.113746   -2.648785
     21          1           0       -0.981199    5.279716   -2.700727
     22          1           0       -0.397413    7.074009   -1.059614
     23          1           0        1.359585    6.697230    0.628017
     24          1           0        1.910259    1.624355   -1.629847
     25          1           0        1.005030    0.519046    0.836627
     26          1           0        1.935880    1.203616    2.175172
     27          1           0        1.077985   -1.430355    4.298538
 ---------------------------------------------------------------------
                    Distance matrix (angstroms):
                    1          2          3          4          5
     1  O    0.000000
     2  C    1.195984   0.000000
     3  S    2.598943   1.804249   0.000000
     4  C    3.931781   2.804168   1.780004   0.000000
     5  C    4.757713   3.641794   2.770535   1.414729   0.000000
     6  C    5.976638   4.813788   4.053675   2.420765   1.375868
     7  C    6.503360   5.310117   4.596081   2.816171   2.430111
     8  C    5.923605   4.773047   4.070581   2.430857   2.816377
     9  C    6.900868   5.811677   5.217592   3.736186   4.235139
    10  C    8.151981   7.031058   6.461019   4.856125   5.058030
    11  C    8.576758   7.401061   6.799682   5.056944   4.856022
    12  C    7.859815   6.664392   6.014297   4.234336   3.735980
    13  C    4.647801   3.544101   2.742325   1.380858   2.424962
    14  C    2.403698   1.518206   2.838338   2.920142   3.528869
    15  C    2.833109   2.535356   4.193141   4.418884   4.895823
    16  O    2.969675   2.950133   4.600080   5.031326   5.276538
    17  O    3.711522   3.490699   5.112776   5.209569   5.771532
    18  H    4.690294   3.712502   2.904856   2.174509   1.091815
    19  H    6.740001   5.614915   4.910989   3.411473   2.140497
    20  H    6.815067   5.827172   5.296921   4.088147   4.876496
    21  H    8.954885   7.875204   7.354018   5.827782   6.124302
    22  H    9.632751   8.455075   7.876914   6.123353   5.827869
    23  H    8.462983   7.271893   6.631332   4.876336   4.088614
    24  H    4.506859   3.556611   2.874329   2.146007   3.416007
    25  H    3.065510   2.149038   3.088428   2.824593   3.655558
    26  H    3.147837   2.152349   2.991812   2.642954   2.806910
    27  H    3.693139   3.825887   5.529698   5.959646   6.200600
                    6          7          8          9         10
     6  C    0.000000
     7  C    1.419414   0.000000
     8  C    2.455104   1.430815   0.000000
     9  C    3.748021   2.457475   1.418969   0.000000
    10  C    4.231813   2.812718   2.425308   1.376120   0.000000
    11  C    3.734260   2.425954   2.809803   2.420067   1.411435
    12  C    2.482887   1.418431   2.454847   2.809600   2.421463
    13  C    2.806529   2.455341   1.417836   2.478399   3.729903
    14  C    4.380390   4.729946   4.297521   5.257324   6.333697
    15  C    5.645617   5.981512   5.602321   6.425202   7.410485
    16  O    6.118298   6.709730   6.524815   7.493547   8.453498
    17  O    6.365634   6.479428   5.988332   6.581585   7.500362
    18  H    2.140518   3.419555   3.908156   5.326949   6.124799
    19  H    1.091886   2.174167   3.444454   4.627548   4.875503
    20  H    4.625722   3.446429   2.174158   1.092112   2.144770
    21  H    5.323706   3.904588   3.413985   2.137398   1.091894
    22  H    4.617696   3.414378   3.901740   3.404442   2.172666
    23  H    2.718815   2.173163   3.444126   3.901658   3.413624
    24  H    3.898694   3.445408   2.174171   2.714449   4.084148
    25  H    4.306503   4.318307   3.641875   4.399011   5.503097
    26  H    3.564613   4.113691   4.010077   5.127607   6.070932
    27  H    6.976243   7.517976   7.327184   8.218062   9.135949
                   11         12         13         14         15
    11  C    0.000000
    12  C    1.376724   0.000000
    13  C    4.227420   3.745656   0.000000
    14  C    6.630443   5.941834   3.395273   0.000000
    15  C    7.697036   7.064614   4.821412   1.505550   0.000000
    16  O    8.594946   7.807840   5.711946   2.350178   1.332105
    17  O    7.892421   7.438938   5.337653   2.396241   1.198876
    18  H    5.829140   4.620551   3.409175   3.788935   5.032805
    19  H    4.089604   2.719560   3.898395   5.139575   6.283404
    20  H    3.412611   3.901704   2.713310   5.381932   6.499224
    21  H    2.173317   3.406016   4.612802   7.164138   8.165215
    22  H    1.091961   2.137923   5.319381   7.625501   8.622598
    23  H    2.145226   1.092071   4.624593   6.527275   7.588729
    24  H    4.870546   4.625239   1.092197   3.576565   4.913102
    25  H    5.965800   5.470112   2.824372   1.098016   2.121078
    26  H    6.138618   5.286333   3.324597   1.101816   2.131892
    27  H    9.287449   8.549938   6.565031   3.183476   1.867011
                   16         17         18         19         20
    16  O    0.000000
    17  O    2.233499   0.000000
    18  H    5.135027   6.046277   0.000000
    19  H    6.598661   7.033367   2.463634   0.000000
    20  H    7.655347   6.553472   5.950993   5.581104   0.000000
    21  H    9.276422   8.131768   7.198670   5.950700   2.464753
    22  H    9.504448   8.765030   6.750228   4.788669   4.307994
    23  H    8.195916   8.020650   4.789109   2.497727   4.993754
    24  H    5.915075   5.298738   4.310738   4.990541   2.490456
    25  H    3.266180   2.523913   4.199629   5.188188   4.420236
    26  H    2.617956   3.065792   2.992367   4.195031   5.472989
    27  H    0.965715   2.293051   6.064420   7.421370   8.348398
                   21         22         23         24         25
    21  H    0.000000
    22  H    2.500709   0.000000
    23  H    4.309193   2.465177   0.000000
    24  H    4.782153   5.945524   5.579898   0.000000
    25  H    6.254755   6.966356   6.191864   2.850376   0.000000
    26  H    6.992734   7.097155   5.736340   3.828295   1.768281
    27  H    9.912367  10.159272   8.922425   6.720839   3.973703
                   26         27
    26  H    0.000000
    27  H    3.490340   0.000000
 Stoichiometry    C13H10O3S
 Framework group  C1[X(C13H10O3S)]
 Deg. of freedom    75
 Full point group                 C1      NOp   1
 Largest Abelian subgroup         C1      NOp   1
 Largest concise Abelian subgroup C1      NOp   1
                         Standard orientation:                         
 ---------------------------------------------------------------------
 Center     Atomic      Atomic             Coordinates (Angstroms)
 Number     Number       Type             X           Y           Z
 ---------------------------------------------------------------------
      1          8           0       -3.698521   -0.922540   -0.724479
      2          6           0       -2.563914   -0.717172   -0.406882
      3         16           0       -1.383838   -2.079778   -0.484597
      4          6           0        0.146244   -1.310610    0.000837
      5          6           0        0.559510   -1.357088    1.353060
      6          6           0        1.745519   -0.775133    1.737409
      7          6           0        2.575905   -0.124068    0.788036
      8          6           0        2.164073   -0.086657   -0.581718
      9          6           0        2.992229    0.560192   -1.535247
     10          6           0        4.175613    1.145033   -1.146312
     11          6           0        4.582277    1.108625    0.204778
     12          6           0        3.802006    0.487960    1.154157
     13          6           0        0.938359   -0.697137   -0.949413
     14          6           0       -2.028865    0.637651    0.021052
     15          6           0       -3.092821    1.689180    0.191245
     16          8           0       -3.956467    1.364570    1.152102
     17          8           0       -3.117892    2.729287   -0.404450
     18          1           0       -0.068174   -1.854110    2.095382
     19          1           0        2.055411   -0.811981    2.783747
     20          1           0        2.681567    0.590728   -2.581797
     21          1           0        4.802250    1.639851   -1.891103
     22          1           0        5.523408    1.575543    0.502502
     23          1           0        4.122220    0.462278    2.197910
     24          1           0        0.618857   -0.674821   -1.993594
     25          1           0       -1.309442    0.998307   -0.725940
     26          1           0       -1.480973    0.532176    0.971151
     27          1           0       -4.597490    2.083276    1.223905
 ---------------------------------------------------------------------
 Rotational constants (GHZ):           0.7508696           0.2314557           0.2087467
 Standard basis: def2SVP (5D, 7F)
 There are   309 symmetry adapted cartesian basis functions of A   symmetry.
 There are   292 symmetry adapted basis functions of A   symmetry.
   292 basis functions,   507 primitive gaussians,   309 cartesian basis functions
    64 alpha electrons       64 beta electrons
       nuclear repulsion energy      1216.0400992370 Hartrees.
 NAtoms=   27 NActive=   27 NUniq=   27 SFac= 1.00D+00 NAtFMM=   60 NAOKFM=F Big=F
 Integral buffers will be    131072 words long.
 Raffenetti 2 integral format.
 Two-electron integral symmetry is turned on.
 Nuclear repulsion after empirical dispersion term =     1216.0230740278 Hartrees.
 One-electron integrals computed using PRISM.
   1 Symmetry operations used in ECPInt.
 ECPInt:  NShTT=    9045 NPrTT=   34191 LenC2=    8246 LenP2D=   21931.
 LDataN:  DoStor=T MaxTD1= 4 Len=   56
 NBasis=   292 RedAO= T EigKep=  2.49D-04  NBF=   292
 NBsUse=   292 1.00D-06 EigRej= -1.00D+00 NBFU=   292
 Initial guess from the checkpoint file:  "MAHT26_clust-3.chk"
 B after Tr=    -0.000000   -0.000000   -0.000000
         Rot=    0.999988    0.001996   -0.000496    0.004401 Ang=   0.56 deg.
 ExpMin= 1.22D-01 ExpMax= 9.18D+03 ExpMxC= 1.38D+03 IAcc=3 IRadAn=         5 AccDes= 0.00D+00
 Harris functional with IExCor= 4639 and IRadAn=       5 diagonalized for initial guess.
 HarFok:  IExCor= 4639 AccDes= 0.00D+00 IRadAn=         5 IDoV= 1 UseB2=F ITyADJ=14
 ICtDFT=  3500011 ScaDFX=  1.000000  1.000000  1.000000  1.000000
 FoFCou: FMM=F IPFlag=           0 FMFlag=      100000 FMFlg1=           0
         NFxFlg=           0 DoJE=T BraDBF=F KetDBF=T FulRan=T
         wScrn=  0.000000 ICntrl=       500 IOpCl=  0 I1Cent=   200000004 NGrid=           0
         NMat0=    1 NMatS0=      1 NMatT0=    0 NMatD0=    1 NMtDS0=    0 NMtDT0=    0
 Petite list used in FoFCou.
 Requested convergence on RMS density matrix=1.00D-08 within 128 cycles.
 Requested convergence on MAX density matrix=1.00D-06.
 Requested convergence on             energy=1.00D-06.
 No special actions if energy rises.
 Integral accuracy reduced to 1.0D-05 until final iterations.
 Initial convergence to 1.0D-05 achieved.  Increase integral accuracy.
 SCF Done:  E(RwB97XD) =  -1124.40275479     A.U. after   14 cycles
            NFock= 14  Conv=0.38D-08     -V/T= 2.0070
   1 Symmetry operations used in ECPInt.
 ECPInt:  NShTT=    9045 NPrTT=   34191 LenC2=    8246 LenP2D=   21931.
 LDataN:  DoStor=T MaxTD1= 5 Len=  102
 Calling FoFJK, ICntrl=      2127 FMM=F ISym2X=0 I1Cent= 0 IOpClX= 0 NMat=1 NMatS=1 NMatT=0.
 ***** Axes restored to original set *****
 -------------------------------------------------------------------
 Center     Atomic                   Forces (Hartrees/Bohr)
 Number     Number              X              Y              Z
 -------------------------------------------------------------------
      1        8           0.000983933   -0.000440147   -0.000177636
      2        6          -0.001105513   -0.000543219   -0.000608920
      3       16           0.000231976   -0.002359947    0.000968193
      4        6          -0.002412352   -0.000816453   -0.005763065
      5        6          -0.000083858    0.006474917    0.003150360
      6        6           0.001783934   -0.004598088   -0.000156065
      7        6          -0.000497879   -0.001798389   -0.001560917
      8        6           0.000968057    0.001718791    0.002246531
      9        6          -0.002408919    0.003954847   -0.000293270
     10        6          -0.000129548   -0.004911621   -0.002913605
     11        6           0.002514059    0.002886753    0.004348326
     12        6          -0.003424354    0.000794736   -0.003258491
     13        6           0.003867964    0.000414561    0.002964294
     14        6           0.000232836    0.002342042   -0.001159743
     15        6           0.000251198    0.003309477    0.001323677
     16        8           0.002241471    0.000175312    0.001468438
     17        8          -0.002030603   -0.003422042   -0.000546700
     18        1           0.000354026   -0.001218968   -0.000477165
     19        1          -0.000207140    0.000630820   -0.000001990
     20        1           0.000395199   -0.000557336    0.000087271
     21        1          -0.000157248    0.000680062    0.000220087
     22        1          -0.000417277   -0.000150876   -0.000527151
     23        1           0.000459683   -0.000142360    0.000423624
     24        1           0.000006465   -0.000169839   -0.000371956
     25        1           0.000140437    0.000208466    0.000026903
     26        1          -0.000181976   -0.000621163   -0.000347467
     27        1          -0.001374570   -0.001840335    0.000936436
 -------------------------------------------------------------------
 Cartesian Forces:  Max     0.006474917 RMS     0.002015728

 GradGradGradGradGradGradGradGradGradGradGradGradGradGradGradGradGradGrad
 Berny optimization.
 Using GEDIIS/GDIIS optimizer.
 FormGI is forming the generalized inverse of G from B-inverse, IUseBI=4.
 Internal  Forces:  Max     0.009292509 RMS     0.001498833
 Search for a local minimum.
 Step number   2 out of a maximum of  144
[...]
 Alpha virt. eigenvalues --   22.90752  22.96021  23.04042  23.11576  23.41679
 Alpha virt. eigenvalues --   23.65286  43.88360  43.93354  43.96061
          Condensed to atoms (all electrons):
               1          2          3          4          5          6
     1  O    7.813297   0.607020  -0.069219   0.006456  -0.000070  -0.000042
     2  C    0.607020   4.640799   0.476500  -0.054508  -0.011216   0.003035
     3  S   -0.069219   0.476500  15.509048   0.307036  -0.069002   0.019239
     4  C    0.006456  -0.054508   0.307036   5.221144   0.182807   0.145381
     5  C   -0.000070  -0.011216  -0.069002   0.182807   5.320043   0.284504
     6  C   -0.000042   0.003035   0.019239   0.145381   0.284504   5.272868
     7  C    0.000001  -0.000655  -0.002126  -0.140846   0.106004   0.280187
     8  C   -0.000056   0.003505   0.023238   0.137103  -0.115355   0.049400
     9  C    0.000000   0.000029  -0.001519   0.015314  -0.004413   0.024610
    10  C   -0.000000  -0.000002  -0.000022  -0.003388   0.001254  -0.004353
    11  C    0.000000   0.000001  -0.000003   0.001786  -0.002296   0.012539
    12  C   -0.000000  -0.000019   0.000010  -0.006470   0.012291  -0.126850
    13  C   -0.000153  -0.015759  -0.072380   0.149411   0.076527  -0.162178
    14  C   -0.111849   0.197796  -0.117085   0.047816   0.001788  -0.001836
    15  C    0.042188  -0.001763   0.009703   0.000366  -0.000637   0.000446
    16  O   -0.002998   0.000661  -0.000489  -0.000012  -0.000094   0.000019
    17  O   -0.001925   0.002348  -0.000287   0.000200  -0.000038   0.000006
    18  H   -0.000033  -0.000306   0.000547  -0.079301   0.463403  -0.066654
    19  H   -0.000000   0.000038  -0.000208   0.013176  -0.055537   0.451428
    20  H   -0.000000   0.000011   0.000009   0.002170   0.000048  -0.000130
    21  H   -0.000000   0.000000  -0.000000   0.000014  -0.000003   0.000057
    22  H    0.000000  -0.000000   0.000000   0.000000   0.000013  -0.000441
    23  H   -0.000000   0.000000  -0.000002  -0.000238   0.001445  -0.005897
    24  H   -0.000036  -0.000020  -0.000165  -0.058610   0.018696  -0.006976
    25  H    0.001430   0.003710  -0.001969   0.001582  -0.002659   0.001508
    26  H    0.002234  -0.006191  -0.000337   0.003666  -0.012705   0.003838
    27  H    0.000253  -0.000813   0.000056  -0.000005   0.000006  -0.000001
               7          8          9         10         11         12
     1  O    0.000001  -0.000056   0.000000  -0.000000   0.000000  -0.000000
     2  C   -0.000655   0.003505   0.000029  -0.000002   0.000001  -0.000019
     3  S   -0.002126   0.023238  -0.001519  -0.000022  -0.000003   0.000010
     4  C   -0.140846   0.137103   0.015314  -0.003388   0.001786  -0.006470
     5  C    0.106004  -0.115355  -0.004413   0.001254  -0.002296   0.012291
     6  C    0.280187   0.049400   0.024610  -0.004353   0.012539  -0.126850
     7  C    5.049012   0.295381  -0.013630  -0.066887   0.012945   0.404800
     8  C    0.295381   5.088196   0.392656   0.005512  -0.068722  -0.017972
     9  C   -0.013630   0.392656   5.116605   0.478488   0.026652  -0.084659
    10  C   -0.066887   0.005512   0.478488   4.907978   0.391603   0.020998
    11  C    0.012945  -0.068722   0.026652   0.391603   4.905024   0.482821
    12  C    0.404800  -0.017972  -0.084659   0.020998   0.482821   5.089159
    13  C    0.024788   0.105881  -0.128329   0.016155  -0.006305   0.027204
    14  C    0.000075  -0.003304  -0.000160  -0.000002  -0.000002   0.000014
    15  C   -0.000121   0.000694   0.000001  -0.000002   0.000001  -0.000003
    16  O   -0.000000   0.000001   0.000000  -0.000000   0.000000   0.000000
    17  O   -0.000001   0.000067  -0.000000  -0.000000   0.000000  -0.000000
    18  H    0.016350  -0.007377   0.000026   0.000013  -0.000006  -0.000190
    19  H   -0.069800   0.015302  -0.000028  -0.000039   0.000752  -0.004762
    20  H    0.013508  -0.064328   0.443723  -0.049982   0.009595  -0.003058
    21  H   -0.002249   0.011755  -0.056026   0.444027  -0.056233   0.010532
    22  H    0.011447  -0.002333   0.010500  -0.055515   0.442920  -0.055449
    23  H   -0.063830   0.014266  -0.003021   0.009235  -0.047944   0.440499
    24  H    0.016171  -0.063829  -0.003674   0.000679  -0.000030  -0.000050
    25  H   -0.000460   0.001512   0.000151  -0.000034   0.000014  -0.000063
    26  H   -0.000799   0.002066  -0.000010  -0.000000   0.000001  -0.000063
    27  H    0.000000  -0.000001  -0.000000   0.000000  -0.000000   0.000000
              13         14         15         16         17         18
     1  O   -0.000153  -0.111849   0.042188  -0.002998  -0.001925  -0.000033
     2  C   -0.015759   0.197796  -0.001763   0.000661   0.002348  -0.000306
     3  S   -0.072380  -0.117085   0.009703  -0.000489  -0.000287   0.000547
     4  C    0.149411   0.047816   0.000366  -0.000012   0.000200  -0.079301
     5  C    0.076527   0.001788  -0.000637  -0.000094  -0.000038   0.463403
     6  C   -0.162178  -0.001836   0.000446   0.000019   0.000006  -0.066654
     7  C    0.024788   0.000075  -0.000121  -0.000000  -0.000001   0.016350
     8  C    0.105881  -0.003304   0.000694   0.000001   0.000067  -0.007377
     9  C   -0.128329  -0.000160   0.000001   0.000000  -0.000000   0.000026
    10  C    0.016155  -0.000002  -0.000002  -0.000000  -0.000000   0.000013
    11  C   -0.006305  -0.000002   0.000001   0.000000   0.000000  -0.000006
    12  C    0.027204   0.000014  -0.000003   0.000000  -0.000000  -0.000190
    13  C    5.831559   0.011238  -0.001983  -0.000030  -0.000307   0.025021
    14  C    0.011238   5.486973   0.165963  -0.119194  -0.091912  -0.000302
    15  C   -0.001983   0.165963   4.446135   0.394285   0.660796  -0.000159
    16  O   -0.000030  -0.119194   0.394285   7.907094  -0.091686   0.000008
    17  O   -0.000307  -0.091912   0.660796  -0.091686   7.834528  -0.000001
    18  H    0.025021  -0.000302  -0.000159   0.000008  -0.000001   0.514386
    19  H   -0.004943  -0.000060   0.000000  -0.000000  -0.000000  -0.007659
    20  H   -0.005544  -0.000042   0.000001   0.000000   0.000000  -0.000003
    21  H   -0.000606  -0.000000   0.000000   0.000000   0.000000   0.000000
    22  H    0.000046   0.000000   0.000000  -0.000000   0.000000  -0.000000
    23  H    0.000234  -0.000002  -0.000000   0.000000  -0.000000  -0.000011
    24  H    0.444309  -0.000380  -0.000114  -0.000000   0.000000   0.000103
    25  H   -0.011285   0.361510  -0.017937   0.004358   0.012095  -0.000028
    26  H   -0.006201   0.344383  -0.001068   0.008117   0.002365  -0.000987
    27  H    0.000006   0.018523  -0.023803   0.290814   0.006060  -0.000000
              19         20         21         22         23         24
     1  O   -0.000000  -0.000000  -0.000000   0.000000  -0.000000  -0.000036
     2  C    0.000038   0.000011   0.000000  -0.000000   0.000000  -0.000020
     3  S   -0.000208   0.000009  -0.000000   0.000000  -0.000002  -0.000165
     4  C    0.013176   0.002170   0.000014   0.000000  -0.000238  -0.058610
     5  C   -0.055537   0.000048  -0.000003   0.000013   0.001445   0.018696
     6  C    0.451428  -0.000130   0.000057  -0.000441  -0.005897  -0.006976
     7  C   -0.069800   0.013508  -0.002249   0.011447  -0.063830   0.016171
     8  C    0.015302  -0.064328   0.011755  -0.002333   0.014266  -0.063829
     9  C   -0.000028   0.443723  -0.056026   0.010500  -0.003021  -0.003674
    10  C   -0.000039  -0.049982   0.444027  -0.055515   0.009235   0.000679
    11  C    0.000752   0.009595  -0.056233   0.442920  -0.047944  -0.000030
    12  C   -0.004762  -0.003058   0.010532  -0.055449   0.440499  -0.000050
    13  C   -0.004943  -0.005544  -0.000606   0.000046   0.000234   0.444309
    14  C   -0.000060  -0.000042  -0.000000   0.000000  -0.000002  -0.000380
    15  C    0.000000   0.000001   0.000000   0.000000  -0.000000  -0.000114
    16  O   -0.000000   0.000000   0.000000  -0.000000   0.000000  -0.000000
    17  O   -0.000000   0.000000   0.000000   0.000000  -0.000000   0.000000
    18  H   -0.007659  -0.000003   0.000000  -0.000000  -0.000011   0.000103
    19  H    0.534959   0.000012  -0.000002  -0.000024   0.004455   0.000017
    20  H    0.000012   0.534369  -0.007106  -0.000131   0.000034   0.004553
    21  H   -0.000002  -0.007106   0.533847  -0.006223  -0.000140  -0.000019
    22  H   -0.000024  -0.000131  -0.006223   0.534492  -0.007145  -0.000002
    23  H    0.004455   0.000034  -0.000140  -0.007145   0.538075   0.000014
    24  H    0.000017   0.004553  -0.000019  -0.000002   0.000014   0.512659
    25  H    0.000006   0.000032  -0.000000  -0.000000  -0.000000  -0.000199
    26  H    0.000048   0.000003   0.000000  -0.000000  -0.000001   0.000010
    27  H    0.000000  -0.000000  -0.000000  -0.000000   0.000000  -0.000000
              25         26         27
     1  O    0.001430   0.002234   0.000253
     2  C    0.003710  -0.006191  -0.000813
     3  S   -0.001969  -0.000337   0.000056
     4  C    0.001582   0.003666  -0.000005
     5  C   -0.002659  -0.012705   0.000006
     6  C    0.001508   0.003838  -0.000001
     7  C   -0.000460  -0.000799   0.000000
     8  C    0.001512   0.002066  -0.000001
     9  C    0.000151  -0.000010  -0.000000
    10  C   -0.000034  -0.000000   0.000000
    11  C    0.000014   0.000001  -0.000000
    12  C   -0.000063  -0.000063   0.000000
    13  C   -0.011285  -0.006201   0.000006
    14  C    0.361510   0.344383   0.018523
    15  C   -0.017937  -0.001068  -0.023803
    16  O    0.004358   0.008117   0.290814
    17  O    0.012095   0.002365   0.006060
    18  H   -0.000028  -0.000987  -0.000000
    19  H    0.000006   0.000048   0.000000
    20  H    0.000032   0.000003  -0.000000
    21  H   -0.000000   0.000000  -0.000000
    22  H   -0.000000  -0.000000  -0.000000
    23  H   -0.000000  -0.000001   0.000000
    24  H   -0.000199   0.000010  -0.000000
    25  H    0.496518  -0.010463  -0.000683
    26  H   -0.010463   0.519741  -0.000718
    27  H   -0.000683  -0.000718   0.366433
 Mulliken charges:
               1
     1  O   -0.286500
     2  C    0.155801
     3  S   -0.010575
     4  C    0.107953
     5  C   -0.194804
     6  C   -0.173707
     7  C    0.130735
     8  C    0.196741
     9  C   -0.213286
    10  C   -0.095718
    11  C   -0.105113
    12  C   -0.188721
    13  C   -0.296377
    14  C   -0.189949
    15  C    0.327012
    16  O   -0.390852
    17  O   -0.332310
    18  H    0.143161
    19  H    0.122870
    20  H    0.122255
    21  H    0.128375
    22  H    0.127844
    23  H    0.119973
    24  H    0.136893
    25  H    0.161354
    26  H    0.153071
    27  H    0.343873
 Sum of Mulliken charges =  -0.00000
 Mulliken charges with hydrogens summed into heavy atoms:
               1
     1  O   -0.286500
     2  C    0.155801
     3  S   -0.010575
     4  C    0.107953
     5  C   -0.051643
     6  C   -0.050837
     7  C    0.130735
     8  C    0.196741
     9  C   -0.091031
    10  C    0.032657
    11  C    0.022731
    12  C   -0.068748
    13  C   -0.159483
    14  C    0.124476
    15  C    0.327012
    16  O   -0.046979
    17  O   -0.332310
 Electronic spatial extent (au):  <R**2>=           5348.1719
 Charge=             -0.0000 electrons
 Dipole moment (field-independent basis, Debye):
    X=              4.5691    Y=              1.1624    Z=              2.2528  Tot=              5.2252
 Quadrupole moment (field-independent basis, Debye-Ang):
   XX=           -104.2272   YY=           -111.7360   ZZ=            -97.0254
   XY=              0.4861   XZ=             -8.9141   YZ=              2.4028
 Traceless Quadrupole moment (field-independent basis, Debye-Ang):
   XX=              0.1023   YY=             -7.4065   ZZ=              7.3042
   XY=              0.4861   XZ=             -8.9141   YZ=              2.4028
 Octapole moment (field-independent basis, Debye-Ang**2):
  XXX=             14.0147  YYY=              5.1764  ZZZ=              3.3048  XYY=             -7.4077
  XXY=             62.6103  XXZ=             42.7102  XZZ=              8.8362  YZZ=              1.6442
  YYZ=             16.2393  XYZ=            -20.6935
 Hexadecapole moment (field-independent basis, Debye-Ang**3):
 XXXX=          -4843.9937 YYYY=          -1182.0464 ZZZZ=           -666.3217 XXXY=            -49.4330
 XXXZ=           -193.1699 YYYX=            -32.6143 YYYZ=             42.7187 ZZZX=             -3.3712
 ZZZY=             -7.0580 XXYY=          -1054.7722 XXZZ=           -933.6204 YYZZ=           -314.1317
 XXYZ=             75.0169 YYXZ=            -73.7653 ZZXY=              2.5813
 N-N= 1.211601034541D+03 E-N=-5.066226256010D+03  KE= 1.121103748957D+03
 Breneman (CHELPG) radii used.
 Read replacement radii for each type of atom:
 Atom Element Radius
    1     8    1.70
    2     6    1.50
    3    16    2.00
    4     6    1.50
    5     6    1.50
    6     6    1.50
    7     6    1.50
    8     6    1.50
    9     6    1.50
   10     6    1.50
   11     6    1.50
   12     6    1.50
   13     6    1.50
   14     6    1.50
   15     6    1.50
   16     8    1.70
   17     8    1.70
   18     1    1.45
   19     1    1.45
   20     1    1.45
   21     1    1.45
   22     1    1.45
   23     1    1.45
   24     1    1.45
   25     1    1.45
   26     1    1.45
   27     1    1.45
 Generate Potential Derived Charges using the Breneman model, NDens= 1.
 Grid spacing= 0.300 Box extension= 2.800
 NStep X,Y,Z=   54     35     38   Total possible points=       71820
 Number of Points to Fit=   17188

 **********************************************************************

            Electrostatic Properties Using The SCF Density.

 **********************************************************************

       Atomic Center    1 is at  -3.697056 -1.003423 -0.602368
       Atomic Center    2 is at  -2.558659 -0.737923 -0.343719
       Atomic Center    3 is at  -1.337833 -2.056734 -0.440977
       Atomic Center    4 is at   0.189024 -1.262500  0.029139
       Atomic Center    5 is at   0.564843 -1.214096  1.399011
       Atomic Center    6 is at   1.740831 -0.613051  1.769559
       Atomic Center    7 is at   2.608289 -0.040073  0.798641
       Atomic Center    8 is at   2.240216 -0.104842 -0.576747
       Atomic Center    9 is at   3.105828  0.461800 -1.552293
       Atomic Center   10 is at   4.280442  1.065752 -1.177507
       Atomic Center   11 is at   4.646534  1.130790  0.189673
       Atomic Center   12 is at   3.831254  0.590868  1.154000
       Atomic Center   13 is at   1.015998 -0.731243 -0.934326
       Atomic Center   14 is at  -2.079540  0.653461  0.042139
       Atomic Center   15 is at  -3.240874  1.617926  0.101117
       Atomic Center   16 is at  -3.933877  1.483233  1.235670
       Atomic Center   17 is at  -3.514873  2.414350 -0.752681
       Atomic Center   18 is at  -0.094347 -1.658300  2.147749
       Atomic Center   19 is at   2.026992 -0.572875  2.823321
       Atomic Center   20 is at   2.820401  0.409473 -2.605687
       Atomic Center   21 is at   4.938477  1.498846 -1.933597
       Atomic Center   22 is at   5.583740  1.613636  0.474186
       Atomic Center   23 is at   4.113217  0.639488  2.208529
       Atomic Center   24 is at   0.729505 -0.782600 -1.987672
       Atomic Center   25 is at  -1.357256  1.009645 -0.704668
       Atomic Center   26 is at  -1.566166  0.607559  1.013583
       Atomic Center   27 is at  -4.687897  2.088382  1.182801
   17188 points will be used for fitting atomic charges
 Fitting point charges to electrostatic potential
 Charges from ESP fit, RMS=   0.00381 RRMS=   0.22828:
 ESP charges:
               1
     1  O   -0.429442
     2  C    0.512493
     3  S   -0.221920
     4  C    0.166629
     5  C   -0.062961
     6  C   -0.275885
     7  C    0.178528
     8  C    0.115495
     9  C   -0.182648
    10  C   -0.083082
    11  C   -0.055237
    12  C   -0.213376
    13  C   -0.186895
    14  C   -0.110287
    15  C    0.697275
    16  O   -0.580461
    17  O   -0.550374
    18  H    0.086651
    19  H    0.156125
    20  H    0.123449
    21  H    0.098538
    22  H    0.097253
    23  H    0.119244
    24  H    0.111543
    25  H    0.028181
    26  H    0.039560
    27  H    0.421602
 Sum of ESP charges =   0.00000
 ESP charges with hydrogens summed into heavy atoms:
               1
     1  O   -0.429442
     2  C    0.512493
     3  S   -0.221920
     4  C    0.166629
     5  C    0.023690
     6  C   -0.119759
     7  C    0.178528
     8  C    0.115495
     9  C   -0.059199
    10  C    0.015457
    11  C    0.042016
    12  C   -0.094131
    13  C   -0.075352
    14  C   -0.042546
    15  C    0.697275
    16  O   -0.158859
    17  O   -0.550374
 Charge=   0.00000 Dipole=     4.7804     1.0116     2.2499 Tot=     5.3793
 -----------------------------------------------------------------

              Electrostatic Properties (Atomic Units)

 -----------------------------------------------------------------
    Center     Electric         -------- Electric Field --------
               Potential          X             Y             Z
 -----------------------------------------------------------------
    1 Atom    -22.358894
    2 Atom    -14.644252
    3 Atom    -59.219015
    4 Atom    -14.716050
    5 Atom    -14.744006
    6 Atom    -14.744466
    7 Atom    -14.735843
    8 Atom    -14.735958
    9 Atom    -14.748353
   10 Atom    -14.749550
   11 Atom    -14.748867
   12 Atom    -14.748860
   13 Atom    -14.740963
   14 Atom    -14.730366
   15 Atom    -14.630052
   16 Atom    -22.305315
   17 Atom    -22.372129
   18 Atom     -1.083059
   19 Atom     -1.083135
   20 Atom     -1.086697
   21 Atom     -1.089735
   22 Atom     -1.089364
   23 Atom     -1.086860
   24 Atom     -1.079663
   25 Atom     -1.070929
   26 Atom     -1.066421
   27 Atom     -0.954335
 -----------------------------------------------------------------
 Unable to Open any file for archive entry.
 1\1\GINC-NOTCH361\SP\RwB97XD\def2TZVP\C13H10O3S1\U0906557\09-Oct-2023\
 0\\#N Guess=Read Geom=Check Integral(Ultrafine) Density Pop=(ChelpG,Re
 adRadii) NMR wB97XD def2TZVP\\MAHT26_clust-3\\0,1\O,0,3.2596517259,-1.
 5122073315,1.3762131813\C,0,2.9101675951,-0.3885503211,1.1557760689\S,
 0,3.9030390197,0.6017938616,0.0276977531\C,0,3.0674706275,2.177768886,
 -0.0075075575\C,0,3.4112890607,3.1783934648,0.9415288656\C,0,2.7804440
 991,4.3961603324,0.9173178146\C,0,1.7851212769,4.6862479117,-0.0566700
 398\C,0,1.4534268444,3.6893487527,-1.0197558917\C,0,0.4627773139,3.975
 4340861,-1.9989527274\C,0,-0.1691494522,5.1941411103,-2.0180405191\C,0
 ,0.159921585,6.1852915366,-1.0605603292\C,0,1.1137341744,5.9380548471,
 -0.1038791572\C,0,2.1200689951,2.4354479144,-0.9720886372\C,0,1.664439
 2557,0.2448984235,1.7568554778\C,0,0.9786264107,-0.7192201597,2.696272
 6511\O,0,1.5915147802,-0.7686151522,3.8826677841\O,0,0.0023370448,-1.3
 616344945,2.4270162492\H,0,4.1794148653,2.9631474046,1.6872562716\H,0,
 3.0426719506,5.163383302,1.6497949052\H,0,0.2118467006,3.208798246,-2.
 735939062\H,0,-0.9291745344,5.4045584758,-2.7732480172\H,0,-0.34995733
 65,7.1505684425,-1.0871524117\H,0,1.3690556351,6.7021585294,0.63426235
 78\H,0,1.8684283991,1.6679259163,-1.7081867525\H,0,0.9683836399,0.5143
 59455,0.9511397277\H,0,1.9421412252,1.1679815425,2.2861594114\H,0,1.13
 58090982,-1.4397349826,4.4113225832\\Version=ES64L-G16RevC.01\State=1-
 A\HF=-1125.3360012\RMSD=1.396e-09\Dipole=-0.429985,2.0096279,0.0514567
 \Quadrupole=-4.4333045,-4.2570871,8.6903915,-1.4965895,4.2300259,-0.60
 91521\PG=C01 [X(C13H10O3S1)]\\@
 The archive entry for this job was punched.


 ERROR IS A HARDY PLANT... IT FLOURISHETH IN EVERY SOIL.
            MARTIN FARQUHAR TUPPER
 Job cpu time:       0 days  1 hours 22 minutes  3.5 seconds.
 Elapsed time:       0 days  0 hours  1 minutes 41.5 seconds.
 File lengths (MBytes):  RWF=    214 Int=      0 D2E=      0 Chk=     33 Scr=      2
 Normal termination of Gaussian 16 at Mon Oct  9 21:25:10 2023.
