 Entering Gaussian System, Link 0=g16
 Input=boc_dmaa_dprocnhso2ph_ome_25.com
 Output=boc_dmaa_dprocnhso2ph_ome_25.log
 Initial command:
 /uufs/chpc.utah.edu/sys/installdir/gaussian16/C01/AVX/g16/l1.exe "/scratch/general/vast/u6058572/4143748-notchpeak.peaks/Gau-555579.inp" -scrdir="/scratch/general/vast/u6058572/4143748-notchpeak.peaks/"
 Entering Link 1 = /uufs/chpc.utah.edu/sys/installdir/gaussian16/C01/AVX/g16/l1.exe PID=    555580.
  
 Copyright (c) 1988-2019, Gaussian, Inc.  All Rights Reserved.
  
 This is part of the Gaussian(R) 16 program.  It is based on
 the Gaussian(R) 09 system (copyright 2009, Gaussian, Inc.),
 the Gaussian(R) 03 system (copyright 2003, Gaussian, Inc.),
 the Gaussian(R) 98 system (copyright 1998, Gaussian, Inc.),
 the Gaussian(R) 94 system (copyright 1995, Gaussian, Inc.),
 the Gaussian 92(TM) system (copyright 1992, Gaussian, Inc.),
 the Gaussian 90(TM) system (copyright 1990, Gaussian, Inc.),
 the Gaussian 88(TM) system (copyright 1988, Gaussian, Inc.),
 the Gaussian 86(TM) system (copyright 1986, Carnegie Mellon
 University), and the Gaussian 82(TM) system (copyright 1983,
 Carnegie Mellon University). Gaussian is a federally registered
 trademark of Gaussian, Inc.
  
 This software contains proprietary and confidential information,
 including trade secrets, belonging to Gaussian, Inc.
  
 This software is provided under written license and may be
 used, copied, transmitted, or stored only in accord with that
 written license.
  
 The following legend is applicable only to US Government
 contracts under FAR:
  
                    RESTRICTED RIGHTS LEGEND
  
 Use, reproduction and disclosure by the US Government is
 subject to restrictions as set forth in subparagraphs (a)
 and (c) of the Commercial Computer Software - Restricted
 Rights clause in FAR 52.227-19.
  
 Gaussian, Inc.
 340 Quinnipiac St., Bldg. 40, Wallingford CT 06492
  
  
 ---------------------------------------------------------------
 Warning -- This program may not be used in any manner that
 competes with the business of Gaussian, Inc. or will provide
 assistance to any competitor of Gaussian, Inc.  The licensee
 of this program is prohibited from giving any competitor of
 Gaussian, Inc. access to this program.  By using this program,
 the user acknowledges that Gaussian, Inc. is engaged in the
 business of creating and licensing software in the field of
 computational chemistry and represents and warrants to the
 licensee that it is not a competitor of Gaussian, Inc. and that
 it will not use this program in any manner prohibited above.
 ---------------------------------------------------------------
  

 Cite this work as:
 Gaussian 16, Revision C.01,
 M. J. Frisch, G. W. Trucks, H. B. Schlegel, G. E. Scuseria, 
 M. A. Robb, J. R. Cheeseman, G. Scalmani, V. Barone, 
 G. A. Petersson, H. Nakatsuji, X. Li, M. Caricato, A. V. Marenich, 
 J. Bloino, B. G. Janesko, R. Gomperts, B. Mennucci, H. P. Hratchian, 
 J. V. Ortiz, A. F. Izmaylov, J. L. Sonnenberg, D. Williams-Young, 
 F. Ding, F. Lipparini, F. Egidi, J. Goings, B. Peng, A. Petrone, 
 T. Henderson, D. Ranasinghe, V. G. Zakrzewski, J. Gao, N. Rega, 
 G. Zheng, W. Liang, M. Hada, M. Ehara, K. Toyota, R. Fukuda, 
 J. Hasegawa, M. Ishida, T. Nakajima, Y. Honda, O. Kitao, H. Nakai, 
 T. Vreven, K. Throssell, J. A. Montgomery, Jr., J. E. Peralta, 
 F. Ogliaro, M. J. Bearpark, J. J. Heyd, E. N. Brothers, K. N. Kudin, 
 V. N. Staroverov, T. A. Keith, R. Kobayashi, J. Normand, 
 K. Raghavachari, A. P. Rendell, J. C. Burant, S. S. Iyengar, 
 J. Tomasi, M. Cossi, J. M. Millam, M. Klene, C. Adamo, R. Cammi, 
 J. W. Ochterski, R. L. Martin, K. Morokuma, O. Farkas, 
 J. B. Foresman, and D. J. Fox, Gaussian, Inc., Wallingford CT, 2019.
 
 ******************************************
 Gaussian 16:  ES64L-G16RevC.01  3-Jul-2019
                29-Apr-2025 
 ******************************************
 %NProcShared=8
 Will use up to    8 processors via shared memory.
 %Mem=16GB
 %chk=boc_dmaa_dprocnhso2ph_ome_25.chk
 ----------------------------------------------------------------------
 #N OPT FREQ=NORAMAN Integral(Ultrafine) pbe1pbe EmpiricalDispersion=GD
 3BJ def2SVP
 ----------------------------------------------------------------------
 1/18=20,19=15,26=4,38=1/1,3;
 2/9=110,12=2,17=6,18=5,40=1/2;
 3/5=43,7=101,11=2,25=1,30=1,71=1,74=-13,75=-5,124=41/1,2,3;
 4//1;
 5/5=2,38=5/2;
 6/7=2,8=2,9=2,10=2,28=1/1;
 7//1,2,3,16;
 1/18=20,19=15,26=4/3(2);
 2/9=110/2;
 99//99;
 2/9=110/2;
 3/5=43,7=101,11=2,25=1,30=1,71=1,74=-13,75=-5,124=41/1,2,3;
 4/5=5,16=3,69=1/1;
 5/5=2,38=5/2;
 7//1,2,3,16;
 1/18=20,19=15,26=4/3(-5);
 2/9=110/2;
 6/7=2,8=2,9=2,10=2,19=2,28=1/1;
 99/9=1/99;
 ----------------------------
 boc_dmaa_dprocnhso2ph_ome_25
 ----------------------------
 Symbolic Z-matrix:
 Charge =  0 Multiplicity = 1
 O                     0.17538  -0.06121   2.50148 
 C                     0.73101  -0.29028   1.44131 
 N                     0.62965  -1.46885   0.81322 
 C                     1.15245  -1.81069  -0.50002 
 C                     2.68794  -1.8605   -0.45274 
 N                     3.33539  -1.66497  -1.61832 
 C                     2.68413  -1.37869  -2.87928 
 C                     4.78126  -1.70791  -1.62891 
 O                     3.26843  -2.0821    0.59498 
 C                     0.56766  -3.20608  -0.78342 
 C                    -0.67164  -3.26282   0.11334 
 N                    -1.74048  -2.48408  -0.48129 
 S                    -3.15221  -2.2906    0.41709 
 C                    -2.90712  -0.70644   1.19764 
 C                    -2.61017   0.37624   0.39561 
 C                    -2.43659   1.6187    0.9809 
 C                    -2.55129   1.75455   2.35574 
 C                    -2.84877   0.65942   3.1492 
 C                    -3.03411  -0.5828    2.5661 
 O                    -4.20371  -2.17246  -0.55316 
 O                    -3.2478   -3.3216    1.4123 
 C                    -0.16416  -2.55051   1.36142 
 C                     1.57404   0.79393   0.74527 
 C                     2.5298    1.39653   1.77624 
 N                     3.17859   2.60287   1.29316 
 C                     4.06066   2.33996   0.17345 
 C                     3.88776   3.26459   2.36965 
 N                     0.69762   1.80973   0.20969 
 C                     0.36163   1.87052  -1.09069 
 O                    -0.44868   2.91632  -1.3109 
 C                    -0.915     3.22999  -2.64651 
 C                    -1.77281   4.48119  -2.4544 
 C                     0.27252   3.5327   -3.5601 
 C                    -1.76023   2.08447  -3.20309 
 O                     0.75016   1.07628  -1.92625 
 H                     0.7964   -1.08154  -1.23216 
 H                     2.08581  -0.46804  -2.81992 
 H                     3.45175  -1.2371   -3.6363 
 H                     2.04511  -2.20702  -3.18975 
 H                     5.18757  -0.74382  -1.94163 
 H                     5.11937  -1.93196  -0.61908 
 H                     5.13411  -2.48552  -2.30894 
 H                     0.32483  -3.34416  -1.83507 
 H                     1.27254  -3.9787   -0.47323 
 H                    -0.99703  -4.28721   0.33385 
 H                    -1.9857   -2.78388  -1.41335 
 H                    -2.51716   0.22727  -0.66829 
 H                    -2.20309   2.47589   0.36742 
 H                    -2.4049    2.72222   2.81246 
 H                    -2.92923   0.76983   4.21921 
 H                    -3.26551  -1.45981   3.15034 
 H                     0.46873  -3.22006   1.95351 
 H                    -0.95497  -2.15361   1.99412 
 H                     2.13021   0.37717  -0.09309 
 H                     1.94296   1.65193   2.66257 
 H                     3.25465   0.61248   2.05833 
 H                     3.47636   2.012    -0.68404 
 H                     4.57099   3.26291  -0.09754 
 H                     4.81716   1.57338   0.40337 
 H                     4.70357   2.65163   2.78223 
 H                     3.18856   3.49465   3.17191 
 H                     4.30757   4.19791   1.997 
 H                     0.33399   2.49913   0.84669 
 H                    -2.15974   4.81571  -3.41213 
 H                    -1.17747   5.27643  -2.01385 
 H                    -2.60748   4.26605  -1.79237 
 H                     0.88852   4.3152   -3.12231 
 H                     0.87969   2.64193  -3.69426 
 H                    -0.08563   3.86554  -4.53012 
 H                    -2.60046   1.88116  -2.5427 
 H                    -1.15788   1.18529  -3.29784 
 H                    -2.14241   2.35709  -4.18287 
 

 GradGradGradGradGradGradGradGradGradGradGradGradGradGradGradGradGradGrad
 Berny optimization.
 Initialization pass.
                           ----------------------------
                           !    Initial Parameters    !
                           ! (Angstroms and Degrees)  !
 --------------------------                            --------------------------
 ! Name  Definition              Value          Derivative Info.                !
 --------------------------------------------------------------------------------
 ! R1    R(1,2)                  1.2187         estimate D2E/DX2                !
 ! R2    R(2,3)                  1.3393         estimate D2E/DX2                !
 ! R3    R(2,23)                 1.5397         estimate D2E/DX2                !
 ! R4    R(3,4)                  1.4542         estimate D2E/DX2                !
 ! R5    R(3,22)                 1.4494         estimate D2E/DX2                !
 ! R6    R(4,5)                  1.537          estimate D2E/DX2                !
 ! R7    R(4,10)                 1.5393         estimate D2E/DX2                !
 ! R8    R(4,36)                 1.0929         estimate D2E/DX2                !
 ! R9    R(5,6)                  1.3476         estimate D2E/DX2                !
 ! R10   R(5,9)                  1.2181         estimate D2E/DX2                !
 ! R11   R(6,7)                  1.4478         estimate D2E/DX2                !
 ! R12   R(6,8)                  1.4465         estimate D2E/DX2                !
 ! R13   R(7,37)                 1.0912         estimate D2E/DX2                !
 ! R14   R(7,38)                 1.0874         estimate D2E/DX2                !
 ! R15   R(7,39)                 1.0913         estimate D2E/DX2                !
 ! R16   R(8,40)                 1.0919         estimate D2E/DX2                !
 ! R17   R(8,41)                 1.0882         estimate D2E/DX2                !
 ! R18   R(8,42)                 1.0916         estimate D2E/DX2                !
 ! R19   R(10,11)                1.5308         estimate D2E/DX2                !
 ! R20   R(10,43)                1.0881         estimate D2E/DX2                !
 ! R21   R(10,44)                1.0909         estimate D2E/DX2                !
 ! R22   R(11,12)                1.45           estimate D2E/DX2                !
 ! R23   R(11,22)                1.524          estimate D2E/DX2                !
 ! R24   R(11,45)                1.0972         estimate D2E/DX2                !
 ! R25   R(12,13)                1.6845         estimate D2E/DX2                !
 ! R26   R(12,46)                1.0093         estimate D2E/DX2                !
 ! R27   R(13,14)                1.7829         estimate D2E/DX2                !
 ! R28   R(13,20)                1.4356         estimate D2E/DX2                !
 ! R29   R(13,21)                1.4362         estimate D2E/DX2                !
 ! R30   R(14,15)                1.3797         estimate D2E/DX2                !
 ! R31   R(14,19)                1.3799         estimate D2E/DX2                !
 ! R32   R(15,16)                1.3843         estimate D2E/DX2                !
 ! R33   R(15,47)                1.0783         estimate D2E/DX2                !
 ! R34   R(16,17)                1.3863         estimate D2E/DX2                !
 ! R35   R(16,48)                1.0797         estimate D2E/DX2                !
 ! R36   R(17,18)                1.3847         estimate D2E/DX2                !
 ! R37   R(17,49)                1.08           estimate D2E/DX2                !
 ! R38   R(18,19)                1.3847         estimate D2E/DX2                !
 ! R39   R(18,50)                1.0787         estimate D2E/DX2                !
 ! R40   R(19,51)                1.0789         estimate D2E/DX2                !
 ! R41   R(22,52)                1.0952         estimate D2E/DX2                !
 ! R42   R(22,53)                1.0878         estimate D2E/DX2                !
 ! R43   R(23,24)                1.5295         estimate D2E/DX2                !
 ! R44   R(23,28)                1.4446         estimate D2E/DX2                !
 ! R45   R(23,54)                1.089          estimate D2E/DX2                !
 ! R46   R(24,25)                1.4524         estimate D2E/DX2                !
 ! R47   R(24,55)                1.0932         estimate D2E/DX2                !
 ! R48   R(24,56)                1.1044         estimate D2E/DX2                !
 ! R49   R(25,26)                1.4495         estimate D2E/DX2                !
 ! R50   R(25,27)                1.449          estimate D2E/DX2                !
 ! R51   R(26,57)                1.0882         estimate D2E/DX2                !
 ! R52   R(26,58)                1.0889         estimate D2E/DX2                !
 ! R53   R(26,59)                1.1013         estimate D2E/DX2                !
 ! R54   R(27,60)                1.1007         estimate D2E/DX2                !
 ! R55   R(27,61)                1.0888         estimate D2E/DX2                !
 ! R56   R(27,62)                1.0891         estimate D2E/DX2                !
 ! R57   R(28,29)                1.3445         estimate D2E/DX2                !
 ! R58   R(28,63)                1.0066         estimate D2E/DX2                !
 ! R59   R(29,30)                1.3412         estimate D2E/DX2                !
 ! R60   R(29,35)                1.2165         estimate D2E/DX2                !
 ! R61   R(30,31)                1.449          estimate D2E/DX2                !
 ! R62   R(31,32)                1.5291         estimate D2E/DX2                !
 ! R63   R(31,33)                1.5286         estimate D2E/DX2                !
 ! R64   R(31,34)                1.5285         estimate D2E/DX2                !
 ! R65   R(32,64)                1.0858         estimate D2E/DX2                !
 ! R66   R(32,65)                1.0867         estimate D2E/DX2                !
 ! R67   R(32,66)                1.0869         estimate D2E/DX2                !
 ! R68   R(33,67)                1.0879         estimate D2E/DX2                !
 ! R69   R(33,68)                1.0863         estimate D2E/DX2                !
 ! R70   R(33,69)                1.0863         estimate D2E/DX2                !
 ! R71   R(34,70)                1.0879         estimate D2E/DX2                !
 ! R72   R(34,71)                1.0864         estimate D2E/DX2                !
 ! R73   R(34,72)                1.0864         estimate D2E/DX2                !
 ! A1    A(1,2,3)              122.6066         estimate D2E/DX2                !
 ! A2    A(1,2,23)             120.6999         estimate D2E/DX2                !
 ! A3    A(3,2,23)             116.6851         estimate D2E/DX2                !
 ! A4    A(2,3,4)              127.095          estimate D2E/DX2                !
 ! A5    A(2,3,22)             121.3857         estimate D2E/DX2                !
 ! A6    A(4,3,22)             111.2867         estimate D2E/DX2                !
 ! A7    A(3,4,5)              109.815          estimate D2E/DX2                !
 ! A8    A(3,4,10)             104.0503         estimate D2E/DX2                !
 ! A9    A(3,4,36)             109.3298         estimate D2E/DX2                !
 ! A10   A(5,4,10)             110.8435         estimate D2E/DX2                !
 ! A11   A(5,4,36)             111.5727         estimate D2E/DX2                !
 ! A12   A(10,4,36)            110.9584         estimate D2E/DX2                !
 ! A13   A(4,5,6)              116.6579         estimate D2E/DX2                !
 ! A14   A(4,5,9)              120.5591         estimate D2E/DX2                !
 ! A15   A(6,5,9)              122.778          estimate D2E/DX2                !
 ! A16   A(5,6,7)              124.4639         estimate D2E/DX2                !
 ! A17   A(5,6,8)              118.8325         estimate D2E/DX2                !
 ! A18   A(7,6,8)              116.6867         estimate D2E/DX2                !
 ! A19   A(6,7,37)             111.3629         estimate D2E/DX2                !
 ! A20   A(6,7,38)             108.3334         estimate D2E/DX2                !
 ! A21   A(6,7,39)             111.1681         estimate D2E/DX2                !
 ! A22   A(37,7,38)            108.4376         estimate D2E/DX2                !
 ! A23   A(37,7,39)            109.1381         estimate D2E/DX2                !
 ! A24   A(38,7,39)            108.3096         estimate D2E/DX2                !
 ! A25   A(6,8,40)             110.3534         estimate D2E/DX2                !
 ! A26   A(6,8,41)             108.0512         estimate D2E/DX2                !
 ! A27   A(6,8,42)             110.4135         estimate D2E/DX2                !
 ! A28   A(40,8,41)            109.3853         estimate D2E/DX2                !
 ! A29   A(40,8,42)            109.2843         estimate D2E/DX2                !
 ! A30   A(41,8,42)            109.3285         estimate D2E/DX2                !
 ! A31   A(4,10,11)            103.4924         estimate D2E/DX2                !
 ! A32   A(4,10,43)            112.1949         estimate D2E/DX2                !
 ! A33   A(4,10,44)            110.1337         estimate D2E/DX2                !
 ! A34   A(11,10,43)           112.384          estimate D2E/DX2                !
 ! A35   A(11,10,44)           109.2866         estimate D2E/DX2                !
 ! A36   A(43,10,44)           109.2168         estimate D2E/DX2                !
 ! A37   A(10,11,12)           109.6719         estimate D2E/DX2                !
 ! A38   A(10,11,22)           101.1189         estimate D2E/DX2                !
 ! A39   A(10,11,45)           113.106          estimate D2E/DX2                !
 ! A40   A(12,11,22)           109.2859         estimate D2E/DX2                !
 ! A41   A(12,11,45)           111.422          estimate D2E/DX2                !
 ! A42   A(22,11,45)           111.7486         estimate D2E/DX2                !
 ! A43   A(11,12,13)           117.4358         estimate D2E/DX2                !
 ! A44   A(11,12,46)           113.4698         estimate D2E/DX2                !
 ! A45   A(13,12,46)           108.8444         estimate D2E/DX2                !
 ! A46   A(12,13,14)           102.7285         estimate D2E/DX2                !
 ! A47   A(12,13,20)           105.2391         estimate D2E/DX2                !
 ! A48   A(12,13,21)           110.0538         estimate D2E/DX2                !
 ! A49   A(14,13,20)           108.8712         estimate D2E/DX2                !
 ! A50   A(14,13,21)           110.098          estimate D2E/DX2                !
 ! A51   A(20,13,21)           118.5981         estimate D2E/DX2                !
 ! A52   A(13,14,15)           118.1851         estimate D2E/DX2                !
 ! A53   A(13,14,19)           120.0742         estimate D2E/DX2                !
 ! A54   A(15,14,19)           121.7342         estimate D2E/DX2                !
 ! A55   A(14,15,16)           119.0454         estimate D2E/DX2                !
 ! A56   A(14,15,47)           118.9268         estimate D2E/DX2                !
 ! A57   A(16,15,47)           122.0275         estimate D2E/DX2                !
 ! A58   A(15,16,17)           119.7937         estimate D2E/DX2                !
 ! A59   A(15,16,48)           119.964          estimate D2E/DX2                !
 ! A60   A(17,16,48)           120.2396         estimate D2E/DX2                !
 ! A61   A(16,17,18)           120.568          estimate D2E/DX2                !
 ! A62   A(16,17,49)           119.7346         estimate D2E/DX2                !
 ! A63   A(18,17,49)           119.6972         estimate D2E/DX2                !
 ! A64   A(17,18,19)           119.7983         estimate D2E/DX2                !
 ! A65   A(17,18,50)           120.2305         estimate D2E/DX2                !
 ! A66   A(19,18,50)           119.9696         estimate D2E/DX2                !
 ! A67   A(14,19,18)           119.0563         estimate D2E/DX2                !
 ! A68   A(14,19,51)           118.9425         estimate D2E/DX2                !
 ! A69   A(18,19,51)           121.9985         estimate D2E/DX2                !
 ! A70   A(3,22,11)            102.7935         estimate D2E/DX2                !
 ! A71   A(3,22,52)            110.1354         estimate D2E/DX2                !
 ! A72   A(3,22,53)            110.2351         estimate D2E/DX2                !
 ! A73   A(11,22,52)           110.4526         estimate D2E/DX2                !
 ! A74   A(11,22,53)           113.8784         estimate D2E/DX2                !
 ! A75   A(52,22,53)           109.1923         estimate D2E/DX2                !
 ! A76   A(2,23,24)            108.3517         estimate D2E/DX2                !
 ! A77   A(2,23,28)            109.3038         estimate D2E/DX2                !
 ! A78   A(2,23,54)            110.988          estimate D2E/DX2                !
 ! A79   A(24,23,28)           110.6078         estimate D2E/DX2                !
 ! A80   A(24,23,54)           110.5214         estimate D2E/DX2                !
 ! A81   A(28,23,54)           107.0702         estimate D2E/DX2                !
 ! A82   A(23,24,25)           112.4675         estimate D2E/DX2                !
 ! A83   A(23,24,55)           107.6428         estimate D2E/DX2                !
 ! A84   A(23,24,56)           107.613          estimate D2E/DX2                !
 ! A85   A(25,24,55)           108.3847         estimate D2E/DX2                !
 ! A86   A(25,24,56)           112.4217         estimate D2E/DX2                !
 ! A87   A(55,24,56)           108.1242         estimate D2E/DX2                !
 ! A88   A(24,25,26)           112.2172         estimate D2E/DX2                !
 ! A89   A(24,25,27)           110.5375         estimate D2E/DX2                !
 ! A90   A(26,25,27)           111.0328         estimate D2E/DX2                !
 ! A91   A(25,26,57)           109.6712         estimate D2E/DX2                !
 ! A92   A(25,26,58)           108.8877         estimate D2E/DX2                !
 ! A93   A(25,26,59)           112.5205         estimate D2E/DX2                !
 ! A94   A(57,26,58)           108.1183         estimate D2E/DX2                !
 ! A95   A(57,26,59)           108.8784         estimate D2E/DX2                !
 ! A96   A(58,26,59)           108.6639         estimate D2E/DX2                !
 ! A97   A(25,27,60)           112.7624         estimate D2E/DX2                !
 ! A98   A(25,27,61)           109.2452         estimate D2E/DX2                !
 ! A99   A(25,27,62)           109.0139         estimate D2E/DX2                !
 ! A100  A(60,27,61)           108.5091         estimate D2E/DX2                !
 ! A101  A(60,27,62)           108.6499         estimate D2E/DX2                !
 ! A102  A(61,27,62)           108.577          estimate D2E/DX2                !
 ! A103  A(23,28,29)           122.8204         estimate D2E/DX2                !
 ! A104  A(23,28,63)           117.7837         estimate D2E/DX2                !
 ! A105  A(29,28,63)           119.3948         estimate D2E/DX2                !
 ! A106  A(28,29,30)           110.1849         estimate D2E/DX2                !
 ! A107  A(28,29,35)           123.7099         estimate D2E/DX2                !
 ! A108  A(30,29,35)           126.1052         estimate D2E/DX2                !
 ! A109  A(29,30,31)           120.9682         estimate D2E/DX2                !
 ! A110  A(30,31,32)           103.9961         estimate D2E/DX2                !
 ! A111  A(30,31,33)           110.1056         estimate D2E/DX2                !
 ! A112  A(30,31,34)           110.57           estimate D2E/DX2                !
 ! A113  A(32,31,33)           110.4179         estimate D2E/DX2                !
 ! A114  A(32,31,34)           110.4111         estimate D2E/DX2                !
 ! A115  A(33,31,34)           111.1234         estimate D2E/DX2                !
 ! A116  A(31,32,64)           109.9497         estimate D2E/DX2                !
 ! A117  A(31,32,65)           110.0224         estimate D2E/DX2                !
 ! A118  A(31,32,66)           110.2045         estimate D2E/DX2                !
 ! A119  A(64,32,65)           109.1091         estimate D2E/DX2                !
 ! A120  A(64,32,66)           108.9419         estimate D2E/DX2                !
 ! A121  A(65,32,66)           108.5809         estimate D2E/DX2                !
 ! A122  A(31,33,67)           109.9889         estimate D2E/DX2                !
 ! A123  A(31,33,68)           110.221          estimate D2E/DX2                !
 ! A124  A(31,33,69)           109.7704         estimate D2E/DX2                !
 ! A125  A(67,33,68)           108.8461         estimate D2E/DX2                !
 ! A126  A(67,33,69)           109.0058         estimate D2E/DX2                !
 ! A127  A(68,33,69)           108.9802         estimate D2E/DX2                !
 ! A128  A(31,34,70)           110.2497         estimate D2E/DX2                !
 ! A129  A(31,34,71)           110.2082         estimate D2E/DX2                !
 ! A130  A(31,34,72)           109.5631         estimate D2E/DX2                !
 ! A131  A(70,34,71)           109.0559         estimate D2E/DX2                !
 ! A132  A(70,34,72)           108.8236         estimate D2E/DX2                !
 ! A133  A(71,34,72)           108.9089         estimate D2E/DX2                !
 ! D1    D(1,2,3,4)            174.3714         estimate D2E/DX2                !
 ! D2    D(1,2,3,22)             0.4112         estimate D2E/DX2                !
 ! D3    D(23,2,3,4)            -4.5749         estimate D2E/DX2                !
 ! D4    D(23,2,3,22)         -178.5352         estimate D2E/DX2                !
 ! D5    D(1,2,23,24)           48.921          estimate D2E/DX2                !
 ! D6    D(1,2,23,28)          -71.6837         estimate D2E/DX2                !
 ! D7    D(1,2,23,54)          170.444          estimate D2E/DX2                !
 ! D8    D(3,2,23,24)         -132.1113         estimate D2E/DX2                !
 ! D9    D(3,2,23,28)          107.2841         estimate D2E/DX2                !
 ! D10   D(3,2,23,54)          -10.5882         estimate D2E/DX2                !
 ! D11   D(2,3,4,5)             69.2415         estimate D2E/DX2                !
 ! D12   D(2,3,4,10)          -172.07           estimate D2E/DX2                !
 ! D13   D(2,3,4,36)           -53.4803         estimate D2E/DX2                !
 ! D14   D(22,3,4,5)          -116.2903         estimate D2E/DX2                !
 ! D15   D(22,3,4,10)            2.3981         estimate D2E/DX2                !
 ! D16   D(22,3,4,36)          120.9879         estimate D2E/DX2                !
 ! D17   D(2,3,22,11)          147.8997         estimate D2E/DX2                !
 ! D18   D(2,3,22,52)          -94.3958         estimate D2E/DX2                !
 ! D19   D(2,3,22,53)           26.1566         estimate D2E/DX2                !
 ! D20   D(4,3,22,11)          -26.9326         estimate D2E/DX2                !
 ! D21   D(4,3,22,52)           90.7719         estimate D2E/DX2                !
 ! D22   D(4,3,22,53)         -148.6757         estimate D2E/DX2                !
 ! D23   D(3,4,5,6)           -155.9182         estimate D2E/DX2                !
 ! D24   D(3,4,5,9)             24.8698         estimate D2E/DX2                !
 ! D25   D(10,4,5,6)            89.6689         estimate D2E/DX2                !
 ! D26   D(10,4,5,9)           -89.5431         estimate D2E/DX2                !
 ! D27   D(36,4,5,6)           -34.5323         estimate D2E/DX2                !
 ! D28   D(36,4,5,9)           146.2557         estimate D2E/DX2                !
 ! D29   D(3,4,10,11)           23.0485         estimate D2E/DX2                !
 ! D30   D(3,4,10,43)          144.4379         estimate D2E/DX2                !
 ! D31   D(3,4,10,44)          -93.6786         estimate D2E/DX2                !
 ! D32   D(5,4,10,11)          141.0303         estimate D2E/DX2                !
 ! D33   D(5,4,10,43)          -97.5803         estimate D2E/DX2                !
 ! D34   D(5,4,10,44)           24.3032         estimate D2E/DX2                !
 ! D35   D(36,4,10,11)         -94.419          estimate D2E/DX2                !
 ! D36   D(36,4,10,43)          26.9705         estimate D2E/DX2                !
 ! D37   D(36,4,10,44)         148.854          estimate D2E/DX2                !
 ! D38   D(4,5,6,7)              1.8177         estimate D2E/DX2                !
 ! D39   D(4,5,6,8)           -179.7286         estimate D2E/DX2                !
 ! D40   D(9,5,6,7)           -178.9893         estimate D2E/DX2                !
 ! D41   D(9,5,6,8)             -0.5357         estimate D2E/DX2                !
 ! D42   D(5,6,7,37)            58.994          estimate D2E/DX2                !
 ! D43   D(5,6,7,38)           178.1624         estimate D2E/DX2                !
 ! D44   D(5,6,7,39)           -62.9421         estimate D2E/DX2                !
 ! D45   D(8,6,7,37)          -119.4898         estimate D2E/DX2                !
 ! D46   D(8,6,7,38)            -0.3214         estimate D2E/DX2                !
 ! D47   D(8,6,7,39)           118.5741         estimate D2E/DX2                !
 ! D48   D(5,6,8,40)          -118.0996         estimate D2E/DX2                !
 ! D49   D(5,6,8,41)             1.4549         estimate D2E/DX2                !
 ! D50   D(5,6,8,42)           120.9755         estimate D2E/DX2                !
 ! D51   D(7,6,8,40)            60.4734         estimate D2E/DX2                !
 ! D52   D(7,6,8,41)          -179.972          estimate D2E/DX2                !
 ! D53   D(7,6,8,42)           -60.4515         estimate D2E/DX2                !
 ! D54   D(4,10,11,12)          76.7508         estimate D2E/DX2                !
 ! D55   D(4,10,11,22)         -38.5725         estimate D2E/DX2                !
 ! D56   D(4,10,11,45)        -158.2034         estimate D2E/DX2                !
 ! D57   D(43,10,11,12)        -44.5113         estimate D2E/DX2                !
 ! D58   D(43,10,11,22)       -159.8345         estimate D2E/DX2                !
 ! D59   D(43,10,11,45)         80.5345         estimate D2E/DX2                !
 ! D60   D(44,10,11,12)       -165.9272         estimate D2E/DX2                !
 ! D61   D(44,10,11,22)         78.7495         estimate D2E/DX2                !
 ! D62   D(44,10,11,45)        -40.8814         estimate D2E/DX2                !
 ! D63   D(10,11,12,13)       -174.2825         estimate D2E/DX2                !
 ! D64   D(10,11,12,46)         57.2435         estimate D2E/DX2                !
 ! D65   D(22,11,12,13)        -64.2795         estimate D2E/DX2                !
 ! D66   D(22,11,12,46)        167.2465         estimate D2E/DX2                !
 ! D67   D(45,11,12,13)         59.7061         estimate D2E/DX2                !
 ! D68   D(45,11,12,46)        -68.7679         estimate D2E/DX2                !
 ! D69   D(10,11,22,3)          39.7805         estimate D2E/DX2                !
 ! D70   D(10,11,22,52)        -77.6995         estimate D2E/DX2                !
 ! D71   D(10,11,22,53)        159.0161         estimate D2E/DX2                !
 ! D72   D(12,11,22,3)         -75.8294         estimate D2E/DX2                !
 ! D73   D(12,11,22,52)        166.6907         estimate D2E/DX2                !
 ! D74   D(12,11,22,53)         43.4062         estimate D2E/DX2                !
 ! D75   D(45,11,22,3)         160.3774         estimate D2E/DX2                !
 ! D76   D(45,11,22,52)         42.8974         estimate D2E/DX2                !
 ! D77   D(45,11,22,53)        -80.3871         estimate D2E/DX2                !
 ! D78   D(11,12,13,14)         96.2872         estimate D2E/DX2                !
 ! D79   D(11,12,13,20)       -149.8084         estimate D2E/DX2                !
 ! D80   D(11,12,13,21)        -20.9372         estimate D2E/DX2                !
 ! D81   D(46,12,13,14)       -133.0707         estimate D2E/DX2                !
 ! D82   D(46,12,13,20)        -19.1664         estimate D2E/DX2                !
 ! D83   D(46,12,13,21)        109.7049         estimate D2E/DX2                !
 ! D84   D(12,13,14,15)         54.0844         estimate D2E/DX2                !
 ! D85   D(12,13,14,19)       -126.823          estimate D2E/DX2                !
 ! D86   D(20,13,14,15)        -57.1378         estimate D2E/DX2                !
 ! D87   D(20,13,14,19)        121.9547         estimate D2E/DX2                !
 ! D88   D(21,13,14,15)        171.2774         estimate D2E/DX2                !
 ! D89   D(21,13,14,19)         -9.63           estimate D2E/DX2                !
 ! D90   D(13,14,15,16)        179.0183         estimate D2E/DX2                !
 ! D91   D(13,14,15,47)         -1.1878         estimate D2E/DX2                !
 ! D92   D(19,14,15,16)         -0.0584         estimate D2E/DX2                !
 ! D93   D(19,14,15,47)        179.7355         estimate D2E/DX2                !
 ! D94   D(13,14,19,18)       -179.5356         estimate D2E/DX2                !
 ! D95   D(13,14,19,51)          1.0548         estimate D2E/DX2                !
 ! D96   D(15,14,19,18)         -0.476          estimate D2E/DX2                !
 ! D97   D(15,14,19,51)       -179.8857         estimate D2E/DX2                !
 ! D98   D(14,15,16,17)          0.5523         estimate D2E/DX2                !
 ! D99   D(14,15,16,48)        179.9531         estimate D2E/DX2                !
 ! D100  D(47,15,16,17)       -179.2349         estimate D2E/DX2                !
 ! D101  D(47,15,16,48)          0.1659         estimate D2E/DX2                !
 ! D102  D(15,16,17,18)         -0.5149         estimate D2E/DX2                !
 ! D103  D(15,16,17,49)        179.3255         estimate D2E/DX2                !
 ! D104  D(48,16,17,18)       -179.914          estimate D2E/DX2                !
 ! D105  D(48,16,17,49)         -0.0736         estimate D2E/DX2                !
 ! D106  D(16,17,18,19)         -0.0243         estimate D2E/DX2                !
 ! D107  D(16,17,18,50)        179.5267         estimate D2E/DX2                !
 ! D108  D(49,17,18,19)       -179.8647         estimate D2E/DX2                !
 ! D109  D(49,17,18,50)         -0.3137         estimate D2E/DX2                !
 ! D110  D(17,18,19,14)          0.5125         estimate D2E/DX2                !
 ! D111  D(17,18,19,51)        179.9034         estimate D2E/DX2                !
 ! D112  D(50,18,19,14)       -179.0397         estimate D2E/DX2                !
 ! D113  D(50,18,19,51)          0.3511         estimate D2E/DX2                !
 ! D114  D(2,23,24,25)        -168.4933         estimate D2E/DX2                !
 ! D115  D(2,23,24,55)         -49.1742         estimate D2E/DX2                !
 ! D116  D(2,23,24,56)          67.1503         estimate D2E/DX2                !
 ! D117  D(28,23,24,25)        -48.7022         estimate D2E/DX2                !
 ! D118  D(28,23,24,55)         70.6168         estimate D2E/DX2                !
 ! D119  D(28,23,24,56)       -173.0587         estimate D2E/DX2                !
 ! D120  D(54,23,24,25)         69.697          estimate D2E/DX2                !
 ! D121  D(54,23,24,55)       -170.9839         estimate D2E/DX2                !
 ! D122  D(54,23,24,56)        -54.6594         estimate D2E/DX2                !
 ! D123  D(2,23,28,29)        -101.1278         estimate D2E/DX2                !
 ! D124  D(2,23,28,63)          79.2537         estimate D2E/DX2                !
 ! D125  D(24,23,28,29)        139.6548         estimate D2E/DX2                !
 ! D126  D(24,23,28,63)        -39.9636         estimate D2E/DX2                !
 ! D127  D(54,23,28,29)         19.174          estimate D2E/DX2                !
 ! D128  D(54,23,28,63)       -160.4445         estimate D2E/DX2                !
 ! D129  D(23,24,25,26)        -65.3799         estimate D2E/DX2                !
 ! D130  D(23,24,25,27)        170.0779         estimate D2E/DX2                !
 ! D131  D(55,24,25,26)        175.7344         estimate D2E/DX2                !
 ! D132  D(55,24,25,27)         51.1922         estimate D2E/DX2                !
 ! D133  D(56,24,25,26)         56.2785         estimate D2E/DX2                !
 ! D134  D(56,24,25,27)        -68.2637         estimate D2E/DX2                !
 ! D135  D(24,25,26,57)         65.9432         estimate D2E/DX2                !
 ! D136  D(24,25,26,58)       -175.9343         estimate D2E/DX2                !
 ! D137  D(24,25,26,59)        -55.4029         estimate D2E/DX2                !
 ! D138  D(27,25,26,57)       -169.7891         estimate D2E/DX2                !
 ! D139  D(27,25,26,58)        -51.6666         estimate D2E/DX2                !
 ! D140  D(27,25,26,59)         68.8648         estimate D2E/DX2                !
 ! D141  D(24,25,27,60)         63.0121         estimate D2E/DX2                !
 ! D142  D(24,25,27,61)        -57.7272         estimate D2E/DX2                !
 ! D143  D(24,25,27,62)       -176.2309         estimate D2E/DX2                !
 ! D144  D(26,25,27,60)        -62.2037         estimate D2E/DX2                !
 ! D145  D(26,25,27,61)        177.0569         estimate D2E/DX2                !
 ! D146  D(26,25,27,62)         58.5533         estimate D2E/DX2                !
 ! D147  D(23,28,29,30)       -179.3549         estimate D2E/DX2                !
 ! D148  D(23,28,29,35)          0.7294         estimate D2E/DX2                !
 ! D149  D(63,28,29,30)          0.2577         estimate D2E/DX2                !
 ! D150  D(63,28,29,35)       -179.658          estimate D2E/DX2                !
 ! D151  D(28,29,30,31)        177.7406         estimate D2E/DX2                !
 ! D152  D(35,29,30,31)         -2.3462         estimate D2E/DX2                !
 ! D153  D(29,30,31,32)       -179.03           estimate D2E/DX2                !
 ! D154  D(29,30,31,33)        -60.7283         estimate D2E/DX2                !
 ! D155  D(29,30,31,34)         62.4517         estimate D2E/DX2                !
 ! D156  D(30,31,32,64)        178.8404         estimate D2E/DX2                !
 ! D157  D(30,31,32,65)         58.6454         estimate D2E/DX2                !
 ! D158  D(30,31,32,66)        -61.0566         estimate D2E/DX2                !
 ! D159  D(33,31,32,64)         60.7538         estimate D2E/DX2                !
 ! D160  D(33,31,32,65)        -59.4412         estimate D2E/DX2                !
 ! D161  D(33,31,32,66)       -179.1432         estimate D2E/DX2                !
 ! D162  D(34,31,32,64)        -62.5323         estimate D2E/DX2                !
 ! D163  D(34,31,32,65)        177.2728         estimate D2E/DX2                !
 ! D164  D(34,31,32,66)         57.5708         estimate D2E/DX2                !
 ! D165  D(30,31,33,67)        -54.3005         estimate D2E/DX2                !
 ! D166  D(30,31,33,68)         65.7191         estimate D2E/DX2                !
 ! D167  D(30,31,33,69)       -174.2338         estimate D2E/DX2                !
 ! D168  D(32,31,33,67)         59.9724         estimate D2E/DX2                !
 ! D169  D(32,31,33,68)        179.992          estimate D2E/DX2                !
 ! D170  D(32,31,33,69)        -59.9609         estimate D2E/DX2                !
 ! D171  D(34,31,33,67)       -177.1562         estimate D2E/DX2                !
 ! D172  D(34,31,33,68)        -57.1366         estimate D2E/DX2                !
 ! D173  D(34,31,33,69)         62.9105         estimate D2E/DX2                !
 ! D174  D(30,31,34,70)         57.4158         estimate D2E/DX2                !
 ! D175  D(30,31,34,71)        -63.0231         estimate D2E/DX2                !
 ! D176  D(30,31,34,72)        177.1566         estimate D2E/DX2                !
 ! D177  D(32,31,34,70)        -57.121          estimate D2E/DX2                !
 ! D178  D(32,31,34,71)       -177.5599         estimate D2E/DX2                !
 ! D179  D(32,31,34,72)         62.6198         estimate D2E/DX2                !
 ! D180  D(33,31,34,70)       -179.9963         estimate D2E/DX2                !
 ! D181  D(33,31,34,71)         59.5648         estimate D2E/DX2                !
 ! D182  D(33,31,34,72)        -60.2555         estimate D2E/DX2                !
 --------------------------------------------------------------------------------
 Trust Radius=3.00D-01 FncErr=1.00D-07 GrdErr=1.00D-06 EigMax=2.50D+02 EigMin=1.00D-04
 Number of steps in this run=    398 maximum allowed number of steps=    432.
 GradGradGradGradGradGradGradGradGradGradGradGradGradGradGradGradGradGrad

 Stoichiometry    C23H37N5O6S
 Framework group  C1[X(C23H37N5O6S)]
 Deg. of freedom   210
 Full point group                 C1      NOp   1
 Largest Abelian subgroup         C1      NOp   1
 Largest concise Abelian subgroup C1      NOp   1
                         Standard orientation:                         
 ---------------------------------------------------------------------
 Center     Atomic      Atomic             Coordinates (Angstroms)
 Number     Number       Type             X           Y           Z
 ---------------------------------------------------------------------
      1          8           0       -0.515059   -0.596231    2.419418
      2          6           0        0.085109   -0.889354    1.400088
      3          7           0       -0.420408   -1.718995    0.478162
      4          6           0        0.154492   -2.046080   -0.816936
      5          6           0        1.428918   -2.883547   -0.624750
      6          7           0        2.331928   -2.848452   -1.624420
      7          6           0        2.192365   -2.054521   -2.827047
      8          6           0        3.546075   -3.624123   -1.495288
      9          8           0        1.586133   -3.549725    0.382863
     10          6           0       -0.942218   -2.870058   -1.515287
     11          6           0       -2.224181   -2.438230   -0.798796
     12          7           0       -2.634072   -1.132034   -1.276584
     13         16           0       -3.944763   -0.401704   -0.510941
     14          6           0       -3.158389    0.668708    0.678481
     15          6           0       -2.214332    1.566152    0.223533
     16          6           0       -1.607498    2.419917    1.128652
     17          6           0       -1.945903    2.353844    2.471377
     18          6           0       -2.894410    1.447695    2.914786
     19          6           0       -3.511638    0.599781    2.010607
     20          8           0       -4.569581    0.405545   -1.520370
     21          8           0       -4.735596   -1.392550    0.163856
     22          6           0       -1.731081   -2.316658    0.638109
     23          6           0        1.471735   -0.289075    1.104089
     24          6           0        2.343034   -0.451849    2.350623
     25          7           0        3.574757    0.313673    2.270718
     26          6           0        4.450286   -0.164938    1.219386
     27          6           0        4.253831    0.319132    3.550740
     28          7           0        1.325056    1.107483    0.765095
     29          6           0        1.356054    1.557031   -0.501601
     30          8           0        1.209957    2.890065   -0.523274
     31          6           0        1.257540    3.625172   -1.771093
     32          6           0        1.076817    5.083539   -1.348305
     33          6           0        2.615669    3.429614   -2.444684
     34          6           0        0.117904    3.192322   -2.693201
     35          8           0        1.496168    0.835381   -1.470891
     36          1           0        0.359038   -1.123165   -1.365433
     37          1           0        2.100851   -0.992436   -2.593823
     38          1           0        3.081574   -2.197449   -3.436347
     39          1           0        1.324162   -2.369244   -3.408461
     40          1           0        4.418567   -2.967555   -1.500453
     41          1           0        3.503984   -4.161484   -0.549907
     42          1           0        3.629157   -4.340545   -2.314714
     43          1           0       -0.981257   -2.678732   -2.585740
     44          1           0       -0.776478   -3.935010   -1.346694
     45          1           0       -3.035830   -3.170952   -0.889474
     46          1           0       -2.778316   -1.096242   -2.274913
     47          1           0       -1.969616    1.578241   -0.826559
     48          1           0       -0.866199    3.127532    0.788928
     49          1           0       -1.463930    3.012889    3.178321
     50          1           0       -3.148060    1.395689    3.961945
     51          1           0       -4.254052   -0.120489    2.317303
     52          1           0       -1.640392   -3.307067    1.096675
     53          1           0       -2.357292   -1.687498    1.266788
     54          1           0        1.934209   -0.778846    0.248458
     55          1           0        1.767316   -0.090353    3.206813
     56          1           0        2.526610   -1.531764    2.491340
     57          1           0        3.987195    0.008085    0.249920
     58          1           0        5.382668    0.396447    1.254312
     59          1           0        4.680687   -1.237321    1.317921
     60          1           0        4.567045   -0.686280    3.870947
     61          1           0        3.589007    0.731561    4.307932
     62          1           0        5.136543    0.953332    3.481421
     63          1           0        1.200535    1.762756    1.519004
     64          1           0        1.118094    5.729748   -2.219841
     65          1           0        1.863255    5.370219   -0.655303
     66          1           0        0.116691    5.215533   -0.856391
     67          1           0        3.414289    3.695469   -1.755517
     68          1           0        2.740742    2.392713   -2.743545
     69          1           0        2.683403    4.061790   -3.325456
     70          1           0       -0.840990    3.337398   -2.200341
     71          1           0        0.226140    2.143968   -2.956955
     72          1           0        0.138788    3.787889   -3.601615
 ---------------------------------------------------------------------
 Rotational constants (GHZ):           0.1296089           0.1021430           0.0850629
 Standard basis: def2SVP (5D, 7F)
 There are   714 symmetry adapted cartesian basis functions of A   symmetry.
 There are   679 symmetry adapted basis functions of A   symmetry.
   679 basis functions,  1146 primitive gaussians,   714 cartesian basis functions
   137 alpha electrons      137 beta electrons
       nuclear repulsion energy      4673.2081883562 Hartrees.
 NAtoms=   72 NActive=   72 NUniq=   72 SFac= 1.00D+00 NAtFMM=   60 NAOKFM=T Big=T
 Integral buffers will be    131072 words long.
 Raffenetti 2 integral format.
 Two-electron integral symmetry is turned on.
 Nuclear repulsion after empirical dispersion term =     4673.1110363439 Hartrees.
 One-electron integrals computed using PRISM.
   1 Symmetry operations used in ECPInt.
 ECPInt:  NShTT=   52326 NPrTT=  187542 LenC2=   45340 LenP2D=  106258.
 LDataN:  DoStor=T MaxTD1= 4 Len=   56
 NBasis=   679 RedAO= T EigKep=  2.42D-04  NBF=   679
 NBsUse=   679 1.00D-06 EigRej= -1.00D+00 NBFU=   679
 ExpMin= 1.22D-01 ExpMax= 9.18D+03 ExpMxC= 1.38D+03 IAcc=3 IRadAn=         5 AccDes= 0.00D+00
 Harris functional with IExCor= 1009 and IRadAn=       5 diagonalized for initial guess.
 HarFok:  IExCor= 1009 AccDes= 0.00D+00 IRadAn=         5 IDoV= 1 UseB2=F ITyADJ=14
 ICtDFT=  3500011 ScaDFX=  1.000000  1.000000  1.000000  1.000000
 FoFCou: FMM=F IPFlag=           0 FMFlag=      100000 FMFlg1=        2001
         NFxFlg=           0 DoJE=T BraDBF=F KetDBF=T FulRan=T
         wScrn=  0.000000 ICntrl=       500 IOpCl=  0 I1Cent=   200000004 NGrid=           0
         NMat0=    1 NMatS0=      1 NMatT0=    0 NMatD0=    1 NMtDS0=    0 NMtDT0=    0
 Petite list used in FoFCou.
 Requested convergence on RMS density matrix=1.00D-08 within 128 cycles.
 Requested convergence on MAX density matrix=1.00D-06.
 Requested convergence on             energy=1.00D-06.
 No special actions if energy rises.
 Integral accuracy reduced to 1.0D-05 until final iterations.
 Initial convergence to 1.0D-05 achieved.  Increase integral accuracy.
 SCF Done:  E(RPBE1PBE) =  -2018.82381392     A.U. after   15 cycles
            NFock= 15  Conv=0.31D-08     -V/T= 2.0078

 **********************************************************************

            Population analysis using the SCF Density.

 **********************************************************************

 Orbital symmetries:
       Occupied  (A) (A) (A) (A) (A) (A) (A) (A) (A) (A) (A) (A)
                 (A) (A) (A) (A) (A) (A) (A) (A) (A) (A) (A) (A)
                 (A) (A) (A) (A) (A) (A) (A) (A) (A) (A) (A) (A)
                 (A) (A) (A) (A) (A) (A) (A) (A) (A) (A) (A) (A)
                 (A) (A) (A) (A) (A) (A) (A) (A) (A) (A) (A) (A)
                 (A) (A) (A) (A) (A) (A) (A) (A) (A) (A) (A) (A)
                 (A) (A) (A) (A) (A) (A) (A) (A) (A) (A) (A) (A)
                 (A) (A) (A) (A) (A) (A) (A) (A) (A) (A) (A) (A)
                 (A) (A) (A) (A) (A) (A) (A) (A) (A) (A) (A) (A)
                 (A) (A) (A) (A) (A) (A) (A) (A) (A) (A) (A) (A)
                 (A) (A) (A) (A) (A) (A) (A) (A) (A) (A) (A) (A)
                 (A) (A) (A) (A) (A)
       Virtual   (A) (A) (A) (A) (A) (A) (A) (A) (A) (A) (A) (A)
                 (A) (A) (A) (A) (A) (A) (A) (A) (A) (A) (A) (A)
                 (A) (A) (A) (A) (A) (A) (A) (A) (A) (A) (A) (A)
                 (A) (A) (A) (A) (A) (A) (A) (A) (A) (A) (A) (A)
                 (A) (A) (A) (A) (A) (A) (A) (A) (A) (A) (A) (A)
                 (A) (A) (A) (A) (A) (A) (A) (A) (A) (A) (A) (A)
                 (A) (A) (A) (A) (A) (A) (A) (A) (A) (A) (A) (A)
                 (A) (A) (A) (A) (A) (A) (A) (A) (A) (A) (A) (A)
                 (A) (A) (A) (A) (A) (A) (A) (A) (A) (A) (A) (A)
                 (A) (A) (A) (A) (A) (A) (A) (A) (A) (A) (A) (A)
                 (A) (A) (A) (A) (A) (A) (A) (A) (A) (A) (A) (A)
                 (A) (A) (A) (A) (A) (A) (A) (A) (A) (A) (A) (A)
                 (A) (A) (A) (A) (A) (A) (A) (A) (A) (A) (A) (A)
                 (A) (A) (A) (A) (A) (A) (A) (A) (A) (A) (A) (A)
                 (A) (A) (A) (A) (A) (A) (A) (A) (A) (A) (A) (A)
                 (A) (A) (A) (A) (A) (A) (A) (A) (A) (A) (A) (A)
                 (A) (A) (A) (A) (A) (A) (A) (A) (A) (A) (A) (A)
                 (A) (A) (A) (A) (A) (A) (A) (A) (A) (A) (A) (A)
                 (A) (A) (A) (A) (A) (A) (A) (A) (A) (A) (A) (A)
                 (A) (A) (A) (A) (A) (A) (A) (A) (A) (A) (A) (A)
                 (A) (A) (A) (A) (A) (A) (A) (A) (A) (A) (A) (A)
                 (A) (A) (A) (A) (A) (A) (A) (A) (A) (A) (A) (A)
                 (A) (A) (A) (A) (A) (A) (A) (A) (A) (A) (A) (A)
                 (A) (A) (A) (A) (A) (A) (A) (A) (A) (A) (A) (A)
                 (A) (A) (A) (A) (A) (A) (A) (A) (A) (A) (A) (A)
                 (A) (A) (A) (A) (A) (A) (A) (A) (A) (A) (A) (A)
                 (A) (A) (A) (A) (A) (A) (A) (A) (A) (A) (A) (A)
                 (A) (A) (A) (A) (A) (A) (A) (A) (A) (A) (A) (A)
                 (A) (A) (A) (A) (A) (A) (A) (A) (A) (A) (A) (A)
                 (A) (A) (A) (A) (A) (A) (A) (A) (A) (A) (A) (A)
                 (A) (A) (A) (A) (A) (A) (A) (A) (A) (A) (A) (A)
                 (A) (A) (A) (A) (A) (A) (A) (A) (A) (A) (A) (A)
                 (A) (A) (A) (A) (A) (A) (A) (A) (A) (A) (A) (A)
                 (A) (A) (A) (A) (A) (A) (A) (A) (A) (A) (A) (A)
                 (A) (A) (A) (A) (A) (A) (A) (A) (A) (A) (A) (A)
                 (A) (A) (A) (A) (A) (A) (A) (A) (A) (A) (A) (A)
                 (A) (A) (A) (A) (A) (A) (A) (A) (A) (A) (A) (A)
                 (A) (A) (A) (A) (A) (A) (A) (A) (A) (A) (A) (A)
                 (A) (A) (A) (A) (A) (A) (A) (A) (A) (A) (A) (A)
                 (A) (A) (A) (A) (A) (A) (A) (A) (A) (A) (A) (A)
                 (A) (A) (A) (A) (A) (A) (A) (A) (A) (A) (A) (A)
                 (A) (A) (A) (A) (A) (A) (A) (A) (A) (A) (A) (A)
                 (A) (A) (A) (A) (A) (A) (A) (A) (A) (A) (A) (A)
                 (A) (A) (A) (A) (A) (A) (A) (A) (A) (A) (A) (A)
                 (A) (A) (A) (A) (A) (A) (A) (A) (A) (A) (A) (A)
                 (A) (A)
 The electronic state is 1-A.
 Alpha  occ. eigenvalues --  -89.22631 -19.25717 -19.19733 -19.19280 -19.19017
 Alpha  occ. eigenvalues --  -19.17372 -19.16762 -14.43069 -14.42247 -14.42098
 Alpha  occ. eigenvalues --  -14.41982 -14.38453 -10.38546 -10.32896 -10.32196
 Alpha  occ. eigenvalues --  -10.31113 -10.28854 -10.28274 -10.27744 -10.27009
 Alpha  occ. eigenvalues --  -10.26481 -10.26434 -10.26396 -10.26023 -10.25415
 Alpha  occ. eigenvalues --  -10.25086 -10.24906 -10.24853 -10.24817 -10.24540
 Alpha  occ. eigenvalues --  -10.24401 -10.24312 -10.23254 -10.22755 -10.22736
 Alpha  occ. eigenvalues --   -8.19563  -6.13759  -6.13712  -6.13543  -1.14776
 Alpha  occ. eigenvalues --   -1.13640  -1.06556  -1.05345  -1.04251  -1.02459
 Alpha  occ. eigenvalues --   -0.98369  -0.96446  -0.96276  -0.94198  -0.93941
 Alpha  occ. eigenvalues --   -0.89575  -0.84084  -0.82291  -0.79385  -0.79048
 Alpha  occ. eigenvalues --   -0.77754  -0.77257  -0.74494  -0.72363  -0.72282
 Alpha  occ. eigenvalues --   -0.71917  -0.71611  -0.70267  -0.68838  -0.67016
 Alpha  occ. eigenvalues --   -0.64902  -0.63794  -0.62897  -0.61050  -0.60517
 Alpha  occ. eigenvalues --   -0.59436  -0.58954  -0.56937  -0.55610  -0.54859
 Alpha  occ. eigenvalues --   -0.54148  -0.53578  -0.52609  -0.52240  -0.51416
 Alpha  occ. eigenvalues --   -0.50163  -0.49733  -0.49623  -0.49349  -0.49071
 Alpha  occ. eigenvalues --   -0.48496  -0.48459  -0.47668  -0.47202  -0.46685
 Alpha  occ. eigenvalues --   -0.46519  -0.46108  -0.45928  -0.45167  -0.44916
 Alpha  occ. eigenvalues --   -0.44724  -0.44578  -0.43887  -0.43338  -0.42604
 Alpha  occ. eigenvalues --   -0.42098  -0.41682  -0.41490  -0.41264  -0.40906
 Alpha  occ. eigenvalues --   -0.40688  -0.40451  -0.40037  -0.39787  -0.39298
 Alpha  occ. eigenvalues --   -0.39091  -0.38757  -0.38610  -0.38220  -0.38120
 Alpha  occ. eigenvalues --   -0.38038  -0.37525  -0.37231  -0.36752  -0.36114
 Alpha  occ. eigenvalues --   -0.35940  -0.35514  -0.35390  -0.33549  -0.32159
 Alpha  occ. eigenvalues --   -0.31824  -0.31385  -0.29902  -0.29693  -0.29251
 Alpha  occ. eigenvalues --   -0.27991  -0.27166  -0.27015  -0.25859  -0.25088
 Alpha  occ. eigenvalues --   -0.24926  -0.22781
 Alpha virt. eigenvalues --   -0.03017  -0.01210   0.02213   0.02321   0.04199
 Alpha virt. eigenvalues --    0.05012   0.05496   0.05952   0.07095   0.07706
 Alpha virt. eigenvalues --    0.08532   0.08729   0.09330   0.09626   0.10108
 Alpha virt. eigenvalues --    0.10528   0.10689   0.10875   0.11599   0.12071
 Alpha virt. eigenvalues --    0.12229   0.12308   0.12604   0.12741   0.12988
 Alpha virt. eigenvalues --    0.13320   0.13569   0.13615   0.14393   0.14498
 Alpha virt. eigenvalues --    0.15059   0.15158   0.15287   0.16124   0.16301
 Alpha virt. eigenvalues --    0.16535   0.16770   0.16910   0.17219   0.17651
 Alpha virt. eigenvalues --    0.17837   0.18150   0.18388   0.18772   0.18793
 Alpha virt. eigenvalues --    0.19115   0.19240   0.20000   0.20080   0.20703
 Alpha virt. eigenvalues --    0.20817   0.21163   0.21882   0.22818   0.23028
 Alpha virt. eigenvalues --    0.23688   0.23976   0.24055   0.24837   0.24904
 Alpha virt. eigenvalues --    0.25212   0.26179   0.27172   0.27361   0.28006
 Alpha virt. eigenvalues --    0.28860   0.29425   0.30472   0.30871   0.31443
 Alpha virt. eigenvalues --    0.32881   0.33855   0.34161   0.36818   0.38387
 Alpha virt. eigenvalues --    0.38531   0.38703   0.39450   0.40264   0.41159
 Alpha virt. eigenvalues --    0.41391   0.42213   0.42690   0.43268   0.43484
 Alpha virt. eigenvalues --    0.44497   0.44801   0.44953   0.45534   0.45810
 Alpha virt. eigenvalues --    0.46181   0.46707   0.47169   0.47794   0.48144
 Alpha virt. eigenvalues --    0.48323   0.49065   0.49503   0.49774   0.50107
 Alpha virt. eigenvalues --    0.50650   0.51488   0.52077   0.52389   0.53372
 Alpha virt. eigenvalues --    0.54229   0.54446   0.55092   0.55443   0.55519
 Alpha virt. eigenvalues --    0.56069   0.56702   0.57309   0.58048   0.58669
 Alpha virt. eigenvalues --    0.59080   0.59516   0.60386   0.60617   0.60779
 Alpha virt. eigenvalues --    0.61560   0.62028   0.62803   0.63232   0.63449
 Alpha virt. eigenvalues --    0.63625   0.63988   0.64495   0.64705   0.64849
 Alpha virt. eigenvalues --    0.64963   0.65190   0.65518   0.65687   0.65956
 Alpha virt. eigenvalues --    0.66028   0.66307   0.66945   0.67012   0.67412
 Alpha virt. eigenvalues --    0.67461   0.67688   0.67881   0.68107   0.68285
 Alpha virt. eigenvalues --    0.68469   0.68815   0.68976   0.69159   0.69470
 Alpha virt. eigenvalues --    0.69757   0.69904   0.69943   0.70269   0.70614
 Alpha virt. eigenvalues --    0.70989   0.71085   0.71130   0.71616   0.71891
 Alpha virt. eigenvalues --    0.72630   0.72901   0.73065   0.73391   0.73610
 Alpha virt. eigenvalues --    0.74244   0.74297   0.74946   0.75373   0.75478
 Alpha virt. eigenvalues --    0.75739   0.76107   0.76300   0.76909   0.77589
 Alpha virt. eigenvalues --    0.78032   0.78727   0.79280   0.79541   0.80032
 Alpha virt. eigenvalues --    0.80687   0.81213   0.81482   0.82347   0.83600
 Alpha virt. eigenvalues --    0.84091   0.84941   0.85300   0.86234   0.86454
 Alpha virt. eigenvalues --    0.87127   0.87150   0.88418   0.89456   0.90543
 Alpha virt. eigenvalues --    0.90853   0.91883   0.92641   0.93960   0.94959
 Alpha virt. eigenvalues --    0.96014   0.96938   0.97146   0.97309   0.98288
 Alpha virt. eigenvalues --    0.98524   0.99703   1.00739   1.01677   1.02182
 Alpha virt. eigenvalues --    1.02883   1.03269   1.04026   1.05545   1.06350
 Alpha virt. eigenvalues --    1.07106   1.07603   1.08714   1.09532   1.10389
 Alpha virt. eigenvalues --    1.10953   1.11032   1.11652   1.12646   1.12996
 Alpha virt. eigenvalues --    1.13286   1.14366   1.14558   1.14762   1.16508
 Alpha virt. eigenvalues --    1.17052   1.17483   1.17567   1.18705   1.19437
 Alpha virt. eigenvalues --    1.20247   1.20992   1.21405   1.22244   1.22915
 Alpha virt. eigenvalues --    1.24169   1.24944   1.25358   1.25930   1.26755
 Alpha virt. eigenvalues --    1.27076   1.27203   1.28448   1.28947   1.29785
 Alpha virt. eigenvalues --    1.29869   1.30524   1.30590   1.31988   1.32242
 Alpha virt. eigenvalues --    1.33921   1.34293   1.34901   1.35659   1.36362
 Alpha virt. eigenvalues --    1.37802   1.38821   1.39391   1.39654   1.40908
 Alpha virt. eigenvalues --    1.41772   1.42447   1.43898   1.45002   1.46057
 Alpha virt. eigenvalues --    1.47015   1.47821   1.49401   1.50401   1.51574
 Alpha virt. eigenvalues --    1.51837   1.52849   1.53301   1.53554   1.54089
 Alpha virt. eigenvalues --    1.54145   1.54405   1.54999   1.55175   1.55556
 Alpha virt. eigenvalues --    1.56256   1.56618   1.57165   1.57580   1.58086
 Alpha virt. eigenvalues --    1.58775   1.59427   1.60851   1.62156   1.62952
 Alpha virt. eigenvalues --    1.63735   1.64982   1.65568   1.66561   1.67907
 Alpha virt. eigenvalues --    1.69051   1.70262   1.70554   1.71555   1.72351
 Alpha virt. eigenvalues --    1.72757   1.73366   1.73527   1.74545   1.75029
 Alpha virt. eigenvalues --    1.75343   1.76308   1.76828   1.77285   1.77998
 Alpha virt. eigenvalues --    1.78295   1.78448   1.78817   1.79096   1.79445
 Alpha virt. eigenvalues --    1.79619   1.79903   1.80843   1.81122   1.81830
 Alpha virt. eigenvalues --    1.82084   1.82947   1.83247   1.83457   1.83741
 Alpha virt. eigenvalues --    1.83873   1.84309   1.84425   1.84861   1.85114
 Alpha virt. eigenvalues --    1.85471   1.85672   1.85793   1.86265   1.86848
 Alpha virt. eigenvalues --    1.87132   1.87372   1.87677   1.88041   1.88277
 Alpha virt. eigenvalues --    1.88907   1.89073   1.90162   1.91099   1.91165
 Alpha virt. eigenvalues --    1.91814   1.92772   1.93560   1.93783   1.94311
 Alpha virt. eigenvalues --    1.94996   1.95776   1.96107   1.96773   1.97068
 Alpha virt. eigenvalues --    1.98045   1.98776   1.98972   1.99356   1.99971
 Alpha virt. eigenvalues --    2.00461   2.00661   2.01509   2.02405   2.02558
 Alpha virt. eigenvalues --    2.02876   2.03350   2.03898   2.04614   2.05192
 Alpha virt. eigenvalues --    2.05838   2.06493   2.06762   2.08074   2.09018
 Alpha virt. eigenvalues --    2.09669   2.09871   2.10823   2.12208   2.12510
 Alpha virt. eigenvalues --    2.13372   2.14140   2.14807   2.16047   2.16677
 Alpha virt. eigenvalues --    2.17359   2.17464   2.18527   2.18937   2.20040
 Alpha virt. eigenvalues --    2.20183   2.21197   2.21442   2.22053   2.23195
 Alpha virt. eigenvalues --    2.23502   2.23913   2.24729   2.26064   2.27736
 Alpha virt. eigenvalues --    2.29045   2.30307   2.31175   2.31686   2.32295
 Alpha virt. eigenvalues --    2.32464   2.32847   2.35266   2.35471   2.35848
 Alpha virt. eigenvalues --    2.37141   2.37637   2.38060   2.38487   2.39294
 Alpha virt. eigenvalues --    2.40477   2.41361   2.42352   2.42558   2.43547
 Alpha virt. eigenvalues --    2.44892   2.45429   2.45774   2.46861   2.47467
 Alpha virt. eigenvalues --    2.48186   2.49124   2.49304   2.49615   2.51141
 Alpha virt. eigenvalues --    2.52902   2.54140   2.55029   2.56196   2.56744
 Alpha virt. eigenvalues --    2.58415   2.59969   2.60756   2.62068   2.62616
 Alpha virt. eigenvalues --    2.63581   2.64418   2.64624   2.65130   2.66337
 Alpha virt. eigenvalues --    2.66598   2.66743   2.66879   2.67098   2.67275
 Alpha virt. eigenvalues --    2.67379   2.67663   2.68226   2.68580   2.69445
 Alpha virt. eigenvalues --    2.69831   2.70012   2.70278   2.71935   2.72354
 Alpha virt. eigenvalues --    2.73280   2.73529   2.74357   2.75192   2.76255
 Alpha virt. eigenvalues --    2.76689   2.77324   2.78030   2.79033   2.79928
 Alpha virt. eigenvalues --    2.80389   2.81458   2.82514   2.84510   2.85836
 Alpha virt. eigenvalues --    2.85914   2.86346   2.87667   2.88811   2.89735
 Alpha virt. eigenvalues --    2.90048   2.90646   2.91441   2.91657   2.92079
 Alpha virt. eigenvalues --    2.92320   2.92949   2.93775   2.94087   2.94693
 Alpha virt. eigenvalues --    2.95282   2.95833   2.96318   2.96690   2.97043
 Alpha virt. eigenvalues --    2.97252   2.98672   2.99304   2.99496   3.00188
 Alpha virt. eigenvalues --    3.00386   3.02461   3.03114   3.03963   3.05119
 Alpha virt. eigenvalues --    3.07482   3.07824   3.08999   3.10456   3.11233
 Alpha virt. eigenvalues --    3.11835   3.12460   3.12644   3.15782   3.17515
 Alpha virt. eigenvalues --    3.18090   3.20552   3.22281   3.23171   3.25542
 Alpha virt. eigenvalues --    3.25751   3.26258   3.26678   3.28022   3.33733
 Alpha virt. eigenvalues --    3.33973   3.36626   3.41466   3.51210   3.51837
 Alpha virt. eigenvalues --    3.52400   3.55588   3.67541   3.71027   3.72418
 Alpha virt. eigenvalues --    3.74456   3.80602
          Condensed to atoms (all electrons):
 Mulliken charges:
               1
     1  O   -0.301423
     2  C    0.257913
     3  N   -0.354186
     4  C   -0.025274
     5  C    0.185271
     6  N   -0.395252
     7  C    0.074962
     8  C    0.061402
     9  O   -0.285121
    10  C    0.090412
    11  C   -0.099070
    12  N   -0.354971
    13  S    0.856439
    14  C   -0.146743
    15  C    0.051200
    16  C   -0.041315
    17  C    0.018617
    18  C    0.016980
    19  C    0.040452
    20  O   -0.452719
    21  O   -0.441248
    22  C    0.237775
    23  C   -0.040721
    24  C    0.128050
    25  N   -0.436261
    26  C    0.066589
    27  C    0.080671
    28  N   -0.177709
    29  C    0.354215
    30  O   -0.354527
    31  C   -0.170588
    32  C    0.022148
    33  C    0.008354
    34  C    0.007471
    35  O   -0.331825
    36  H    0.079523
    37  H    0.088499
    38  H    0.045788
    39  H    0.037054
    40  H    0.048855
    41  H    0.078490
    42  H    0.047641
    43  H    0.042561
    44  H    0.050467
    45  H    0.062318
    46  H    0.154652
    47  H    0.012334
    48  H    0.025651
    49  H    0.016002
    50  H    0.021302
    51  H    0.033885
    52  H    0.058107
    53  H    0.063749
    54  H    0.062113
    55  H    0.041943
    56  H    0.037116
    57  H    0.050829
    58  H    0.033417
    59  H    0.013885
    60  H    0.011356
    61  H    0.036751
    62  H    0.035655
    63  H    0.150768
    64  H    0.039313
    65  H    0.043266
    66  H    0.044081
    67  H    0.040287
    68  H    0.060693
    69  H    0.036323
    70  H    0.048093
    71  H    0.060621
    72  H    0.036637
 Sum of Mulliken charges =  -0.00000
 Mulliken charges with hydrogens summed into heavy atoms:
               1
     1  O   -0.301423
     2  C    0.257913
     3  N   -0.354186
     4  C    0.054249
     5  C    0.185271
     6  N   -0.395252
     7  C    0.246303
     8  C    0.236388
     9  O   -0.285121
    10  C    0.183440
    11  C   -0.036752
    12  N   -0.200319
    13  S    0.856439
    14  C   -0.146743
    15  C    0.063534
    16  C   -0.015663
    17  C    0.034619
    18  C    0.038282
    19  C    0.074338
    20  O   -0.452719
    21  O   -0.441248
    22  C    0.359632
    23  C    0.021392
    24  C    0.207110
    25  N   -0.436261
    26  C    0.164721
    27  C    0.164433
    28  N   -0.026941
    29  C    0.354215
    30  O   -0.354527
    31  C   -0.170588
    32  C    0.148807
    33  C    0.145657
    34  C    0.152823
    35  O   -0.331825
 Electronic spatial extent (au):  <R**2>=          15106.6051
 Charge=             -0.0000 electrons
 Dipole moment (field-independent basis, Debye):
    X=              5.8211    Y=              1.5030    Z=             -2.9909  Tot=              6.7149
 Quadrupole moment (field-independent basis, Debye-Ang):
   XX=           -232.9485   YY=           -206.4337   ZZ=           -203.1010
   XY=              2.5098   XZ=             -8.1835   YZ=             13.7556
 Traceless Quadrupole moment (field-independent basis, Debye-Ang):
   XX=            -18.7874   YY=              7.7274   ZZ=             11.0600
   XY=              2.5098   XZ=             -8.1835   YZ=             13.7556
 Octapole moment (field-independent basis, Debye-Ang**2):
  XXX=            212.3210  YYY=             38.8709  ZZZ=            -17.2852  XYY=              7.2358
  XXY=            -20.1224  XXZ=             31.4637  XZZ=              9.2599  YZZ=              5.9224
  YYZ=            -57.6781  XYZ=             -4.9018
 Hexadecapole moment (field-independent basis, Debye-Ang**3):
 XXXX=          -9705.1978 YYYY=          -6572.7344 ZZZZ=          -3958.0648 XXXY=            -80.4773
 XXXZ=           -156.9879 YYYX=            141.4358 YYYZ=              6.7144 ZZZX=            -24.5950
 ZZZY=             83.1434 XXYY=          -2628.8828 XXZZ=          -2087.8901 YYZZ=          -1666.4006
 XXYZ=            111.4238 YYXZ=            -70.9130 ZZXY=             10.6295
 N-N= 4.673111036344D+03 E-N=-1.406684236698D+04  KE= 2.003247783800D+03
   1 Symmetry operations used in ECPInt.
 ECPInt:  NShTT=   52326 NPrTT=  187542 LenC2=   45340 LenP2D=  106258.
 LDataN:  DoStor=T MaxTD1= 5 Len=  102
 Calling FoFJK, ICntrl=      2127 FMM=T ISym2X=0 I1Cent= 0 IOpClX= 0 NMat=1 NMatS=1 NMatT=0.
 ***** Axes restored to original set *****
 -------------------------------------------------------------------
 Center     Atomic                   Forces (Hartrees/Bohr)
 Number     Number              X              Y              Z
 -------------------------------------------------------------------
      1        8           0.001895968    0.002781801    0.003197925
      2        6           0.003243083    0.006097044    0.000326824
      3        7          -0.005106474   -0.013742574   -0.007269304
      4        6           0.007057608    0.000502626    0.003920289
      5        6          -0.004106840   -0.000985529    0.002727134
      6        7           0.008448102    0.002315979   -0.008732280
      7        6          -0.001833101   -0.000136562    0.007495781
      8        6          -0.007885555   -0.001209702    0.003326300
      9        8          -0.001166376   -0.000785213    0.005292595
     10        6          -0.007347343    0.008486506    0.007078795
     11        6           0.006986764    0.002331503    0.005423602
     12        7           0.000644102    0.002569554    0.005638355
     13       16           0.012220628    0.013968023   -0.008402245
     14        6           0.000616155   -0.012188291   -0.003157310
     15        6          -0.000192577    0.004502371   -0.002861161
     16        6          -0.001472309   -0.001590205   -0.000635491
     17        6          -0.000990854   -0.000545035    0.001094095
     18        6          -0.000743689   -0.000332196   -0.002353797
     19        6          -0.002161656   -0.001932219    0.002779633
     20        8          -0.017530203    0.007078645   -0.022141450
     21        8           0.003309546   -0.017133839    0.026019858
     22        6           0.002944153    0.001437832   -0.005781600
     23        6          -0.005673064    0.003478773    0.008511339
     24        6          -0.000367214    0.007381530   -0.011995607
     25        7           0.004699421   -0.005679969    0.003767131
     26        6          -0.009974509    0.003088643    0.009610007
     27        6          -0.007475235   -0.005333300   -0.010304771
     28        7           0.004827074   -0.004799101    0.001568336
     29        6           0.000009493    0.003234018    0.007541720
     30        8          -0.000946876   -0.000435613   -0.003502367
     31        6          -0.002563146    0.002213701   -0.007016671
     32        6           0.009132897   -0.012184197    0.001383305
     33        6          -0.006511291   -0.004055035    0.009059409
     34        6           0.007874279    0.006126140    0.006713923
     35        8          -0.000056255   -0.001679930   -0.007160809
     36        1          -0.000322239    0.002584396   -0.003207290
     37        1          -0.003614147    0.004836367   -0.000556024
     38        1           0.003932097    0.000090766   -0.005044830
     39        1          -0.003992291   -0.004873083   -0.004248841
     40        1           0.003497863    0.005772487   -0.002356884
     41        1           0.002167044   -0.000954586    0.004935946
     42        1           0.003392070   -0.004430417   -0.004656069
     43        1          -0.000131518   -0.002044495   -0.007726267
     44        1           0.002635254   -0.005176507    0.001352183
     45        1           0.000564613   -0.003832145    0.001125955
     46        1          -0.005990321   -0.000833276   -0.006849446
     47        1           0.001707480    0.000876183   -0.010050729
     48        1           0.002027816    0.006239432   -0.005678863
     49        1           0.001358005    0.008142309    0.003914004
     50        1          -0.000637569    0.000577480    0.009305255
     51        1          -0.001562980   -0.007306031    0.006308357
     52        1           0.001219221   -0.003856899    0.003940177
     53        1          -0.001005062    0.000882150    0.004918108
     54        1           0.001742052    0.000106958   -0.003544645
     55        1          -0.002907831   -0.000734727    0.004823743
     56        1           0.002115158   -0.004108627    0.002374187
     57        1          -0.002516231   -0.003083499   -0.007861086
     58        1           0.004021828    0.005543687   -0.003437923
     59        1           0.005579151   -0.004846279    0.000362413
     60        1           0.005881336   -0.003093888    0.003741469
     61        1          -0.003754788    0.002200323    0.006823134
     62        1           0.003806881    0.007055762   -0.000834174
     63        1          -0.001372624    0.004016325    0.001135135
     64        1          -0.003358690    0.002854657   -0.007718734
     65        1           0.004443596    0.006961446    0.003295708
     66        1          -0.007277984   -0.001246253    0.005194306
     67        1           0.004753414    0.006626797    0.002644727
     68        1           0.004462142   -0.005633568   -0.001556573
     69        1          -0.002889083    0.003400973   -0.007793706
     70        1          -0.007266927   -0.001584735    0.004400476
     71        1           0.003459772   -0.006273142   -0.001061235
     72        1          -0.003971215    0.002297476   -0.007573456
 -------------------------------------------------------------------
 Cartesian Forces:  Max     0.026019858 RMS     0.005775830

 GradGradGradGradGradGradGradGradGradGradGradGradGradGradGradGradGradGrad
 Berny optimization.
 FormGI is forming the generalized inverse of G from B-inverse, IUseBI=4.
 Internal  Forces:  Max     0.030110058 RMS     0.004139373
 Search for a local minimum.
 Step number   1 out of a maximum of  398
 All quantities printed in internal units (Hartrees-Bohrs-Radians)
 Mixed Optimization -- RFO/linear search
 Second derivative matrix not updated -- first step.
 ITU=  0
     Eigenvalues ---    0.00241   0.00276   0.00375   0.00381   0.00388
     Eigenvalues ---    0.00389   0.00508   0.00596   0.00857   0.00998
     Eigenvalues ---    0.01031   0.01038   0.01043   0.01043   0.01060
     Eigenvalues ---    0.01076   0.01102   0.01145   0.01165   0.01324
     Eigenvalues ---    0.01423   0.01501   0.01642   0.01669   0.02279
     Eigenvalues ---    0.02284   0.02286   0.02291   0.02304   0.02320
     Eigenvalues ---    0.02327   0.02349   0.02385   0.02426   0.02441
     Eigenvalues ---    0.02470   0.02494   0.02526   0.02771   0.02918
     Eigenvalues ---    0.03460   0.04280   0.04405   0.04771   0.04902
     Eigenvalues ---    0.04960   0.04973   0.05048   0.05150   0.05607
     Eigenvalues ---    0.05654   0.05678   0.05700   0.05704   0.05711
     Eigenvalues ---    0.05741   0.05754   0.05762   0.05850   0.06405
     Eigenvalues ---    0.06461   0.06779   0.06779   0.07021   0.07296
     Eigenvalues ---    0.07301   0.07341   0.07403   0.07546   0.07720
     Eigenvalues ---    0.07729   0.07731   0.07813   0.08404   0.09207
     Eigenvalues ---    0.09308   0.09946   0.10757   0.12343   0.12381
     Eigenvalues ---    0.12833   0.12893   0.13718   0.15999   0.15999
     Eigenvalues ---    0.16000   0.16000   0.16000   0.16000   0.16000
     Eigenvalues ---    0.16000   0.16000   0.16000   0.16000   0.16000
     Eigenvalues ---    0.16000   0.16000   0.16000   0.16000   0.16000
     Eigenvalues ---    0.16000   0.16000   0.16000   0.16000   0.16000
     Eigenvalues ---    0.16000   0.16000   0.16000   0.16000   0.16000
     Eigenvalues ---    0.16002   0.16510   0.16847   0.17126   0.17443
     Eigenvalues ---    0.17776   0.18012   0.18797   0.20396   0.22000
     Eigenvalues ---    0.22000   0.22000   0.22001   0.23031   0.23499
     Eigenvalues ---    0.24789   0.24991   0.24995   0.24996   0.24997
     Eigenvalues ---    0.24998   0.25000   0.25000   0.25000   0.25000
     Eigenvalues ---    0.25000   0.25000   0.26649   0.27508   0.27960
     Eigenvalues ---    0.28545   0.28700   0.28784   0.29466   0.29504
     Eigenvalues ---    0.29557   0.29559   0.33199   0.33542   0.33607
     Eigenvalues ---    0.33992   0.34221   0.34440   0.34478   0.34588
     Eigenvalues ---    0.34627   0.34666   0.34670   0.34711   0.34914
     Eigenvalues ---    0.34932   0.34940   0.34955   0.35016   0.35018
     Eigenvalues ---    0.35031   0.35061   0.35062   0.35073   0.35119
     Eigenvalues ---    0.35179   0.35197   0.35227   0.35229   0.35240
     Eigenvalues ---    0.35247   0.35308   0.35738   0.35994   0.36036
     Eigenvalues ---    0.36127   0.36152   0.36201   0.36848   0.37824
     Eigenvalues ---    0.37928   0.38248   0.38316   0.38372   0.38375
     Eigenvalues ---    0.38535   0.38701   0.38964   0.43699   0.43903
     Eigenvalues ---    0.46085   0.46544   0.48134   0.48284   0.48679
     Eigenvalues ---    0.49015   0.55537   0.56217   0.56939   0.57356
     Eigenvalues ---    0.95975   0.96226   0.96940   1.02397   1.02660
 RFO step:  Lambda=-2.32679341D-02 EMin= 2.40764728D-03
 Linear search not attempted -- first point.
 Iteration  1 RMS(Cart)=  0.30538606 RMS(Int)=  0.00990925
 Iteration  2 RMS(Cart)=  0.12751228 RMS(Int)=  0.00126158
 Iteration  3 RMS(Cart)=  0.00454666 RMS(Int)=  0.00016816
 Iteration  4 RMS(Cart)=  0.00000494 RMS(Int)=  0.00016816
 Iteration  5 RMS(Cart)=  0.00000000 RMS(Int)=  0.00016816
 Variable       Old X    -DE/DX   Delta X   Delta X   Delta X     New X
                                 (Linear)    (Quad)   (Total)
    R1        2.30295   0.00244   0.00000   0.00248   0.00248   2.30544
    R2        2.53096   0.01204   0.00000   0.02018   0.02018   2.55114
    R3        2.90962  -0.00058   0.00000  -0.00186  -0.00186   2.90775
    R4        2.74809  -0.00001   0.00000   0.00006   0.00020   2.74829
    R5        2.73889   0.00257   0.00000   0.00548   0.00550   2.74439
    R6        2.90456  -0.00120   0.00000  -0.00386  -0.00386   2.90069
    R7        2.90883  -0.00105   0.00000  -0.00234  -0.00227   2.90657
    R8        2.06531   0.00398   0.00000   0.01081   0.01081   2.07612
    R9        2.54658   0.01069   0.00000   0.01847   0.01847   2.56504
   R10        2.30189   0.00414   0.00000   0.00420   0.00420   2.30609
   R11        2.73594   0.00451   0.00000   0.01104   0.01104   2.74698
   R12        2.73358   0.00119   0.00000   0.00289   0.00289   2.73647
   R13        2.06214   0.00599   0.00000   0.01618   0.01618   2.07832
   R14        2.05483   0.00630   0.00000   0.01682   0.01682   2.07165
   R15        2.06220   0.00725   0.00000   0.01959   0.01959   2.08179
   R16        2.06348   0.00707   0.00000   0.01916   0.01916   2.08264
   R17        2.05648   0.00545   0.00000   0.01460   0.01460   2.07108
   R18        2.06285   0.00715   0.00000   0.01936   0.01936   2.08221
   R19        2.89274  -0.00209   0.00000  -0.00787  -0.00792   2.88482
   R20        2.05624   0.00776   0.00000   0.02076   0.02076   2.07701
   R21        2.06146   0.00575   0.00000   0.01553   0.01553   2.07699
   R22        2.74006   0.01096   0.00000   0.02702   0.02702   2.76708
   R23        2.87997   0.00267   0.00000   0.00940   0.00923   2.88920
   R24        2.07343   0.00364   0.00000   0.01001   0.01001   2.08345
   R25        3.18322   0.00031   0.00000   0.00078   0.00078   3.18400
   R26        1.90736   0.00803   0.00000   0.01658   0.01658   1.92394
   R27        3.36928  -0.00403   0.00000  -0.01351  -0.01351   3.35577
   R28        2.71292   0.02839   0.00000   0.02704   0.02704   2.73996
   R29        2.71394   0.03011   0.00000   0.02875   0.02875   2.74269
   R30        2.60729   0.01410   0.00000   0.02787   0.02793   2.63522
   R31        2.60761   0.01113   0.00000   0.02202   0.02207   2.62968
[...]
 Alpha virt. eigenvalues --   43.78750  44.03893  44.21252  44.23105  44.28195
 Alpha virt. eigenvalues --   44.62893
          Condensed to atoms (all electrons):
 Mulliken charges:
               1
     1  O   -0.395974
     2  C    0.140271
     3  N    0.041607
     4  C    0.035303
     5  C    0.056984
     6  N   -0.020153
     7  C   -0.344038
     8  C   -0.339554
     9  O   -0.371142
    10  C   -0.331861
    11  C    0.151115
    12  N   -0.397606
    13  S    0.742141
    14  C    0.035765
    15  C   -0.149524
    16  C   -0.117594
    17  C   -0.098375
    18  C   -0.101690
    19  C   -0.139952
    20  O   -0.451676
    21  O   -0.448319
    22  C   -0.227712
    23  C    0.126897
    24  C   -0.266630
    25  N   -0.140709
    26  C   -0.318553
    27  C   -0.302458
    28  N   -0.246174
    29  C    0.430037
    30  O   -0.276983
    31  C    0.163009
    32  C   -0.346112
    33  C   -0.397675
    34  C   -0.414611
    35  O   -0.491012
    36  H    0.151315
    37  H    0.185174
    38  H    0.143586
    39  H    0.126270
    40  H    0.130358
    41  H    0.177667
    42  H    0.135323
    43  H    0.129887
    44  H    0.137055
    45  H    0.130008
    46  H    0.235116
    47  H    0.151454
    48  H    0.123969
    49  H    0.115693
    50  H    0.120703
    51  H    0.160586
    52  H    0.121587
    53  H    0.173780
    54  H    0.100226
    55  H    0.156605
    56  H    0.131216
    57  H    0.137235
    58  H    0.131077
    59  H    0.105144
    60  H    0.102988
    61  H    0.131499
    62  H    0.125907
    63  H    0.231779
    64  H    0.121844
    65  H    0.127241
    66  H    0.131391
    67  H    0.122092
    68  H    0.154281
    69  H    0.126457
    70  H    0.141352
    71  H    0.155933
    72  H    0.129158
 Sum of Mulliken charges =  -0.00000
 Mulliken charges with hydrogens summed into heavy atoms:
               1
     1  O   -0.395974
     2  C    0.140271
     3  N    0.041607
     4  C    0.186618
     5  C    0.056984
     6  N   -0.020153
     7  C    0.110992
     8  C    0.103794
     9  O   -0.371142
    10  C   -0.064918
    11  C    0.281123
    12  N   -0.162490
    13  S    0.742141
    14  C    0.035765
    15  C    0.001930
    16  C    0.006376
    17  C    0.017319
    18  C    0.019012
    19  C    0.020634
    20  O   -0.451676
    21  O   -0.448319
    22  C    0.067656
    23  C    0.227123
    24  C    0.021190
    25  N   -0.140709
    26  C    0.054903
    27  C    0.057936
    28  N   -0.014394
    29  C    0.430037
    30  O   -0.276983
    31  C    0.163009
    32  C    0.034365
    33  C    0.005155
    34  C    0.011832
    35  O   -0.491012
 Electronic spatial extent (au):  <R**2>=          15349.3578
 Charge=             -0.0000 electrons
 Dipole moment (field-independent basis, Debye):
    X=              6.8649    Y=              1.4602    Z=             -2.6891  Tot=              7.5160
 Quadrupole moment (field-independent basis, Debye-Ang):
   XX=           -231.8837   YY=           -206.3675   ZZ=           -207.0279
   XY=              3.3444   XZ=            -11.4431   YZ=             13.5041
 Traceless Quadrupole moment (field-independent basis, Debye-Ang):
   XX=            -16.7907   YY=              8.7256   ZZ=              8.0652
   XY=              3.3444   XZ=            -11.4431   YZ=             13.5041
 Octapole moment (field-independent basis, Debye-Ang**2):
  XXX=            220.2920  YYY=             39.9264  ZZZ=            -16.8879  XYY=             -0.5204
  XXY=             -3.3406  XXZ=             47.3774  XZZ=             13.1664  YZZ=              3.9798
  YYZ=            -55.6194  XYZ=             -1.0868
 Hexadecapole moment (field-independent basis, Debye-Ang**3):
 XXXX=         -10152.9542 YYYY=          -6809.1288 ZZZZ=          -3808.3013 XXXY=            -91.9826
 XXXZ=           -198.7319 YYYX=            164.6935 YYYZ=              2.7066 ZZZX=            -33.4895
 ZZZY=             97.1402 XXYY=          -2767.4536 XXZZ=          -2127.4957 YYZZ=          -1667.4263
 XXYZ=            113.1363 YYXZ=            -64.7183 ZZXY=              2.5104
 N-N= 4.647926605857D+03 E-N=-1.402916119986D+04  KE= 2.012008999230D+03
 Breneman (CHELPG) radii used.
 Read replacement radii for each type of atom:
 Atom Element Radius
    1     8    1.70
    2     6    1.50
    3     7    1.70
    4     6    1.50
    5     6    1.50
    6     7    1.70
    7     6    1.50
    8     6    1.50
    9     8    1.70
   10     6    1.50
   11     6    1.50
   12     7    1.70
   13    16    2.00
   14     6    1.50
   15     6    1.50
   16     6    1.50
   17     6    1.50
   18     6    1.50
   19     6    1.50
   20     8    1.70
   21     8    1.70
   22     6    1.50
   23     6    1.50
   24     6    1.50
   25     7    1.70
   26     6    1.50
   27     6    1.50
   28     7    1.70
   29     6    1.50
   30     8    1.70
   31     6    1.50
   32     6    1.50
   33     6    1.50
   34     6    1.50
   35     8    1.70
   36     1    1.45
   37     1    1.45
   38     1    1.45
   39     1    1.45
   40     1    1.45
   41     1    1.45
   42     1    1.45
   43     1    1.45
   44     1    1.45
   45     1    1.45
   46     1    1.45
   47     1    1.45
   48     1    1.45
   49     1    1.45
   50     1    1.45
   51     1    1.45
   52     1    1.45
   53     1    1.45
   54     1    1.45
   55     1    1.45
   56     1    1.45
   57     1    1.45
   58     1    1.45
   59     1    1.45
   60     1    1.45
   61     1    1.45
   62     1    1.45
   63     1    1.45
   64     1    1.45
   65     1    1.45
   66     1    1.45
   67     1    1.45
   68     1    1.45
   69     1    1.45
   70     1    1.45
   71     1    1.45
   72     1    1.45
 Generate Potential Derived Charges using the Breneman model, NDens= 1.
 Grid spacing= 0.300 Box extension= 2.800
 NStep X,Y,Z=   54     54     46   Total possible points=      134136
 Number of Points to Fit=   31451

 **********************************************************************

            Electrostatic Properties Using The SCF Density.

 **********************************************************************

       Atomic Center    1 is at  -0.278397 -0.542368  2.484693
       Atomic Center    2 is at   0.243329 -0.859082  1.430333
       Atomic Center    3 is at  -0.317703 -1.738234  0.570589
       Atomic Center    4 is at   0.193171 -2.111431 -0.738054
       Atomic Center    5 is at   1.519029 -2.865079 -0.621720
       Atomic Center    6 is at   2.392265 -2.732652 -1.659686
       Atomic Center    7 is at   2.144607 -1.915977 -2.830793
       Atomic Center    8 is at   3.604632 -3.517601 -1.641294
       Atomic Center    9 is at   1.743773 -3.559373  0.354808
       Atomic Center   10 is at  -0.904625 -3.040547 -1.284700
       Atomic Center   11 is at  -2.163507 -2.575423 -0.558751
       Atomic Center   12 is at  -2.603985 -1.333549 -1.177353
       Atomic Center   13 is at  -3.943234 -0.527492 -0.589518
       Atomic Center   14 is at  -3.255370  0.579373  0.614282
       Atomic Center   15 is at  -2.218719  1.434810  0.243527
       Atomic Center   16 is at  -1.700542  2.307160  1.194453
       Atomic Center   17 is at  -2.220109  2.318691  2.489571
       Atomic Center   18 is at  -3.262169  1.464717  2.840707
       Atomic Center   19 is at  -3.791671  0.586078  1.898431
       Atomic Center   20 is at  -4.427264  0.241138 -1.728276
       Atomic Center   21 is at  -4.812404 -1.461318  0.119823
       Atomic Center   22 is at  -1.614678 -2.321535  0.839683
       Atomic Center   23 is at   1.604873 -0.261249  1.034621
       Atomic Center   24 is at   2.569765 -0.506772  2.190823
       Atomic Center   25 is at   3.768696  0.292585  2.094179
       Atomic Center   26 is at   4.576921 -0.026086  0.943218
       Atomic Center   27 is at   4.529661  0.278654  3.318903
       Atomic Center   28 is at   1.496178  1.152777  0.781379
       Atomic Center   29 is at   1.214241  1.636088 -0.445479
       Atomic Center   30 is at   1.259463  2.975097 -0.440554
       Atomic Center   31 is at   1.126830  3.750614 -1.662016
       Atomic Center   32 is at   1.281107  5.182227 -1.171886
       Atomic Center   33 is at   2.250088  3.386666 -2.624655
       Atomic Center   34 is at  -0.248018  3.541666 -2.284082
       Atomic Center   35 is at   0.942937  0.944583 -1.414065
       Atomic Center   36 is at   0.281606 -1.208152 -1.355058
       Atomic Center   37 is at   1.769438 -0.918502 -2.561196
       Atomic Center   38 is at   3.095708 -1.776743 -3.362248
       Atomic Center   39 is at   1.438573 -2.390241 -3.535188
       Atomic Center   40 is at   4.492803 -2.865761 -1.690264
       Atomic Center   41 is at   3.628055 -4.089721 -0.706530
       Atomic Center   42 is at   3.638435 -4.215625 -2.494983
       Atomic Center   43 is at  -0.988715 -2.997604 -2.380611
       Atomic Center   44 is at  -0.694768 -4.081709 -0.997296
       Atomic Center   45 is at  -2.960830 -3.336973 -0.550561
       Atomic Center   46 is at  -2.678032 -1.348638 -2.192336
       Atomic Center   47 is at  -1.809983  1.392492 -0.767452
       Atomic Center   48 is at  -0.874437  2.969103  0.928330
       Atomic Center   49 is at  -1.797542  2.994877  3.236094
       Atomic Center   50 is at  -3.660548  1.472620  3.857430
       Atomic Center   51 is at  -4.598537 -0.106503  2.144646
       Atomic Center   52 is at  -1.519677 -3.276497  1.384943
       Atomic Center   53 is at  -2.213427 -1.641757  1.456742
       Atomic Center   54 is at   1.988745 -0.728539  0.118769
       Atomic Center   55 is at   2.039130 -0.237863  3.117688
       Atomic Center   56 is at   2.769601 -1.599951  2.231110
       Atomic Center   57 is at   4.008482  0.128292  0.013418
       Atomic Center   58 is at   5.453330  0.638518  0.906617
       Atomic Center   59 is at   4.944462 -1.077012  0.945970
       Atomic Center   60 is at   4.948117 -0.722671  3.565469
       Atomic Center   61 is at   3.893247  0.590653  4.160698
       Atomic Center   62 is at   5.370989  0.985506  3.248731
       Atomic Center   63 is at   1.906381  1.781481  1.462136
       Atomic Center   64 is at   1.211777  5.882930 -2.016079
       Atomic Center   65 is at   2.255312  5.318613 -0.680442
       Atomic Center   66 is at   0.490498  5.429147 -0.448348
       Atomic Center   67 is at   3.227208  3.503609 -2.131966
       Atomic Center   68 is at   2.147683  2.351664 -2.974435
       Atomic Center   69 is at   2.223742  4.056626 -3.496564
       Atomic Center   70 is at  -1.041427  3.771421 -1.557547
       Atomic Center   71 is at  -0.370070  2.508710 -2.631680
       Atomic Center   72 is at  -0.369715  4.219750 -3.141616
   31451 points will be used for fitting atomic charges
 Fitting point charges to electrostatic potential
 Charges from ESP fit, RMS=   0.00266 RRMS=   0.15576:
 ESP charges:
               1
     1  O   -0.516329
     2  C    0.552191
     3  N   -0.233393
     4  C    0.377059
     5  C    0.392702
     6  N   -0.027628
     7  C   -0.164557
     8  C   -0.195870
     9  O   -0.532416
    10  C   -0.469041
    11  C    0.459771
    12  N   -0.570269
    13  S    0.798998
    14  C    0.033178
    15  C   -0.040103
    16  C   -0.091942
    17  C   -0.081009
    18  C   -0.082890
    19  C   -0.088375
    20  O   -0.488555
    21  O   -0.461626
    22  C   -0.265383
    23  C   -0.179037
    24  C    0.292217
    25  N   -0.272236
    26  C   -0.124127
    27  C   -0.170295
    28  N   -0.378927
    29  C    0.779011
    30  O   -0.543666
    31  C    0.728233
    32  C   -0.384059
    33  C   -0.452838
    34  C   -0.242355
    35  O   -0.507030
    36  H   -0.060604
    37  H    0.084646
    38  H    0.093016
    39  H    0.055438
    40  H    0.071213
    41  H    0.109924
    42  H    0.073628
    43  H    0.116893
    44  H    0.130315
    45  H   -0.005086
    46  H    0.341016
    47  H    0.059907
    48  H    0.103084
    49  H    0.101597
    50  H    0.100216
    51  H    0.107976
    52  H    0.101540
    53  H    0.148897
    54  H    0.073343
    55  H    0.008841
    56  H   -0.014137
    57  H    0.025273
    58  H    0.088746
    59  H    0.069060
    60  H    0.054190
    61  H    0.086403
    62  H    0.087570
    63  H    0.240515
    64  H    0.082521
    65  H    0.091436
    66  H    0.092315
    67  H    0.102697
    68  H    0.088601
    69  H    0.099386
    70  H    0.023287
    71  H    0.070339
    72  H    0.046595
 Sum of ESP charges =   0.00000
 ESP charges with hydrogens summed into heavy atoms:
               1
     1  O   -0.516329
     2  C    0.552191
     3  N   -0.233393
     4  C    0.316455
     5  C    0.392702
     6  N   -0.027628
     7  C    0.068543
     8  C    0.058895
     9  O   -0.532416
    10  C   -0.221833
    11  C    0.454685
    12  N   -0.229253
    13  S    0.798998
    14  C    0.033178
    15  C    0.019805
    16  C    0.011142
    17  C    0.020588
    18  C    0.017326
    19  C    0.019601
    20  O   -0.488555
    21  O   -0.461626
    22  C   -0.014946
    23  C   -0.105693
    24  C    0.286920
    25  N   -0.272236
    26  C    0.058951
    27  C    0.057868
    28  N   -0.138412
    29  C    0.779011
    30  O   -0.543666
    31  C    0.728233
    32  C   -0.117787
    33  C   -0.162154
    34  C   -0.102133
    35  O   -0.507030
 Charge=   0.00000 Dipole=     6.8091     1.5284    -2.6444 Tot=     7.4627
 -----------------------------------------------------------------

              Electrostatic Properties (Atomic Units)

 -----------------------------------------------------------------
    Center     Electric         -------- Electric Field --------
               Potential          X             Y             Z
 -----------------------------------------------------------------
    1 Atom    -22.395389
    2 Atom    -14.676566
    3 Atom    -18.343461
    4 Atom    -14.709629
    5 Atom    -14.666160
    6 Atom    -18.327651
    7 Atom    -14.719588
    8 Atom    -14.727910
    9 Atom    -22.384748
   10 Atom    -14.736098
   11 Atom    -14.704055
   12 Atom    -18.347579
   13 Atom    -59.033557
   14 Atom    -14.734484
   15 Atom    -14.751442
   16 Atom    -14.757929
   17 Atom    -14.755842
   18 Atom    -14.757444
   19 Atom    -14.752349
   20 Atom    -22.369878
   21 Atom    -22.367955
   22 Atom    -14.729692
   23 Atom    -14.711849
   24 Atom    -14.736073
   25 Atom    -18.369519
   26 Atom    -14.739936
   27 Atom    -14.741904
   28 Atom    -18.344665
   29 Atom    -14.615092
   30 Atom    -22.303534
   31 Atom    -14.680207
   32 Atom    -14.764599
   33 Atom    -14.767124
   34 Atom    -14.770920
   35 Atom    -22.372488
   36 Atom     -1.100174
   37 Atom     -1.092643
   38 Atom     -1.086518
   39 Atom     -1.093638
   40 Atom     -1.097427
   41 Atom     -1.099570
   42 Atom     -1.097852
   43 Atom     -1.086381
   44 Atom     -1.093645
   45 Atom     -1.102819
   46 Atom     -1.008048
   47 Atom     -1.094517
   48 Atom     -1.100408
   49 Atom     -1.099445
   50 Atom     -1.100104
   51 Atom     -1.096317
   52 Atom     -1.109389
   53 Atom     -1.106063
   54 Atom     -1.099068
   55 Atom     -1.115794
   56 Atom     -1.117040
   57 Atom     -1.107416
   58 Atom     -1.107246
   59 Atom     -1.114304
   60 Atom     -1.118258
   61 Atom     -1.110446
   62 Atom     -1.110445
   63 Atom     -1.014356
   64 Atom     -1.102435
   65 Atom     -1.107616
   66 Atom     -1.107458
   67 Atom     -1.107621
   68 Atom     -1.112084
   69 Atom     -1.103774
   70 Atom     -1.111234
   71 Atom     -1.116148
   72 Atom     -1.107150
 -----------------------------------------------------------------
 Unable to Open any file for archive entry.
 1\1\GINC-NOTCH167\SP\RPBE1PBE\def2TZVP\C23H37N5O6S1\U6058572\30-Apr-20
 25\0\\#N Guess=Read Geom=Check Integral(Ultrafine) Density Pop=(ChelpG
 ,ReadRadii) NMR pbe1pbe EmpiricalDispersion=GD3BJ def2TZVP\\boc_dmaa_d
 procnhso2ph_ome_25\\0,1\O,0,0.2194916707,0.0707238028,2.4911518353\C,0
 ,0.7662917117,-0.2195597323,1.4419014441\N,0,0.6623865692,-1.442464465
 8,0.8757443622\C,0,1.2126283246,-1.8494854568,-0.4065901811\C,0,2.7419
 208073,-1.8428799584,-0.3813033371\N,0,3.3731661227,-1.5841957391,-1.5
 611610372\C,0,2.6862402818,-1.2998310769,-2.8049669841\C,0,4.813628511
 ,-1.6815382826,-1.6048432134\O,0,3.3371045501,-2.0828067693,0.65520639
 24\C,0,0.6860243722,-3.2861646811,-0.5674473895\C,0,-0.5931022508,-3.2
 953602264,0.2643434598\N,0,-1.624525625,-2.601332132,-0.4929098611\S,0
 ,-3.1497403989,-2.3931680307,0.154586279\C,0,-3.0278010037,-0.83169293
 01,0.9878747581\C,0,-2.5720494678,0.2840149275,0.2869026473\C,0,-2.496
 5985799,1.5040545432,0.9499057397\C,0,-2.8767614106,1.5966507121,2.289
 4269201\C,0,-3.3390876461,0.4747476525,2.9721034938\C,0,-3.420753035,-
 0.7537335801,2.3206214371\O,0,-4.0161882126,-2.2515013353,-1.007758236
 3\O,0,-3.4014947216,-3.4125811245,1.1685239275\C,0,-0.1595367823,-2.47
 38368875,1.4719906221\C,0,1.6296093887,0.8224627418,0.7093271125\C,0,2
 .6563305919,1.3530224352,1.705545377\N,0,3.2967571826,2.5653787318,1.2
 519016192\C,0,4.0874559711,2.382577115,0.0598997191\C,0,4.0362947517,3
 .214771751,2.3057432051\N,0,0.8227518613,1.9086390862,0.2147397382\C,0
 ,0.2672460441,1.8801069035,-1.0136161014\O,0,-0.3537928583,3.038968019
 5,-1.2712294313\C,0,-0.9235633767,3.329314637,-2.5758546951\C,0,-1.467
 0128098,4.7391720955,-2.4011797038\C,0,0.1739833842,3.3019289834,-3.63
 2019094\C,0,-2.0503350896,2.3560618784,-2.8983368336\O,0,0.3157836064,
 0.9240581203,-1.7709533113\H,0,0.8073490673,-1.1962672412,-1.189841866
 5\H,0,1.8844772757,-0.5602059224,-2.668872361\H,0,3.4115910456,-0.8721
 546379,-3.510220538\H,0,2.2659199965,-2.2076111463,-3.2727802134\H,0,5
 .2599539249,-0.7270965698,-1.9303858663\H,0,5.1713616176,-1.9219404942
 ,-0.5969303783\H,0,5.1369444361,-2.4722982201,-2.3029332887\H,0,0.5271
 923615,-3.5635730557,-1.6199463896\H,0,1.3987433256,-4.000195817,-0.12
 83000858\H,0,-0.9088690008,-4.3108602898,0.5555490351\H,0,-1.741237242
 8,-2.9030385059,-1.4579247803\H,0,-2.2561148182,0.1849247784,-0.752953
 3745\H,0,-2.121935858,2.3837459584,0.4233988596\H,0,-2.7995734108,2.55
 44388832,2.8088200015\H,0,-3.628717025,0.5508870636,4.0222513356\H,0,-
 3.7647795243,-1.6554663406,2.8303726255\H,0,0.4261975158,-3.1035238163
 ,2.163868384\H,0,-0.9780964936,-2.0208495613,2.0430623465\H,0,2.139231
 3605,0.3749199453,-0.1535124055\H,0,2.1178592391,1.5666211329,2.642235
 3713\H,0,3.3714331371,0.5282282528,1.9175389759\H,0,3.4631161975,2.015
 9442474,-0.7691132387\H,0,4.5180067828,3.3454782374,-0.2540727803\H,0,
 4.9250393325,1.6623011938,0.1984538219\H,0,4.9079823676,2.6214162273,2
 .6616127695\H,0,3.3797470671,3.3943842671,3.1704217659\H,0,4.413577751
 8,4.1887886906,1.9573975405\H,0,0.9087535685,2.803883587,0.6817589376\
 H,0,-1.9226755883,5.090053006,-3.3380400804\H,0,-0.6598446004,5.431599
 6105,-2.1215078351\H,0,-2.232249962,4.7621258642,-1.6116072956\H,0,0.9
 933465601,3.9795226521,-3.3479555168\H,0,0.5750706775,2.2880509016,-3.
 7554782582\H,0,-0.2308447876,3.6397752775,-4.5972854187\H,0,-2.8093577
 667,2.3638939172,-2.1021187817\H,0,-1.6671788734,1.3353222628,-3.01666
 18566\H,0,-2.5410720913,2.6600239332,-3.8346898399\\Version=ES64L-G16R
 evC.01\State=1-A\HF=-2020.7843585\RMSD=3.252e-09\Dipole=1.9980732,1.47
 95973,-1.6007721\Quadrupole=-11.3871401,6.5980539,4.7890862,-9.2331652
 ,-9.3100367,5.129023\PG=C01 [X(C23H37N5O6S1)]\\@
 The archive entry for this job was punched.


 SEEN ON A WALL AT THE UNIVERSITY OF ILLINOIS AT CHICAGO CIRCLE:

 TO DO IS TO BE  -- SOCRATES
 TO BE IS TO DO  -- SARTRE
 OO BE DO BE DO  -- SINATRA
 Job cpu time:       0 days 10 hours 26 minutes 39.3 seconds.
 Elapsed time:       0 days  1 hours 24 minutes 16.4 seconds.
 File lengths (MBytes):  RWF=    982 Int=      0 D2E=      0 Chk=    153 Scr=      2
 Normal termination of Gaussian 16 at Wed Apr 30 06:24:57 2025.
