 Entering Gaussian System, Link 0=g16
 Input=NVAMCAUNVWYMKC-UHFFFAOYSA-N_10.com
 Output=NVAMCAUNVWYMKC-UHFFFAOYSA-N_10.log
 Initial command:
 /uufs/chpc.utah.edu/sys/installdir/gaussian16/C01/AVX/g16/l1.exe "/scratch/general/vast/u6053008/3385824-notchpeak.peaks/Gau-1885054.inp" -scrdir="/scratch/general/vast/u6053008/3385824-notchpeak.peaks/"
 Entering Link 1 = /uufs/chpc.utah.edu/sys/installdir/gaussian16/C01/AVX/g16/l1.exe PID=   1885057.

 Copyright (c) 1988-2019, Gaussian, Inc.  All Rights Reserved.

 This is part of the Gaussian(R) 16 program.  It is based on
 the Gaussian(R) 09 system (copyright 2009, Gaussian, Inc.),
 the Gaussian(R) 03 system (copyright 2003, Gaussian, Inc.),
 the Gaussian(R) 98 system (copyright 1998, Gaussian, Inc.),
 the Gaussian(R) 94 system (copyright 1995, Gaussian, Inc.),
 the Gaussian 92(TM) system (copyright 1992, Gaussian, Inc.),
 the Gaussian 90(TM) system (copyright 1990, Gaussian, Inc.),
 the Gaussian 88(TM) system (copyright 1988, Gaussian, Inc.),
 the Gaussian 86(TM) system (copyright 1986, Carnegie Mellon
 University), and the Gaussian 82(TM) system (copyright 1983,
 Carnegie Mellon University). Gaussian is a federally registered
 trademark of Gaussian, Inc.

 This software contains proprietary and confidential information,
 including trade secrets, belonging to Gaussian, Inc.

 This software is provided under written license and may be
 used, copied, transmitted, or stored only in accord with that
 written license.

 The following legend is applicable only to US Government
 contracts under FAR:

                    RESTRICTED RIGHTS LEGEND

 Use, reproduction and disclosure by the US Government is
 subject to restrictions as set forth in subparagraphs (a)
 and (c) of the Commercial Computer Software - Restricted
 Rights clause in FAR 52.227-19.

 Gaussian, Inc.
 340 Quinnipiac St., Bldg. 40, Wallingford CT 06492


 ---------------------------------------------------------------
 Warning -- This program may not be used in any manner that
 competes with the business of Gaussian, Inc. or will provide
 assistance to any competitor of Gaussian, Inc.  The licensee
 of this program is prohibited from giving any competitor of
 Gaussian, Inc. access to this program.  By using this program,
 the user acknowledges that Gaussian, Inc. is engaged in the
 business of creating and licensing software in the field of
 computational chemistry and represents and warrants to the
 licensee that it is not a competitor of Gaussian, Inc. and that
 it will not use this program in any manner prohibited above.
 ---------------------------------------------------------------


 Cite this work as:
 Gaussian 16, Revision C.01,
 M. J. Frisch, G. W. Trucks, H. B. Schlegel, G. E. Scuseria,
 M. A. Robb, J. R. Cheeseman, G. Scalmani, V. Barone,
 G. A. Petersson, H. Nakatsuji, X. Li, M. Caricato, A. V. Marenich,
 J. Bloino, B. G. Janesko, R. Gomperts, B. Mennucci, H. P. Hratchian,
 J. V. Ortiz, A. F. Izmaylov, J. L. Sonnenberg, D. Williams-Young,
 F. Ding, F. Lipparini, F. Egidi, J. Goings, B. Peng, A. Petrone,
 T. Henderson, D. Ranasinghe, V. G. Zakrzewski, J. Gao, N. Rega,
 G. Zheng, W. Liang, M. Hada, M. Ehara, K. Toyota, R. Fukuda,
 J. Hasegawa, M. Ishida, T. Nakajima, Y. Honda, O. Kitao, H. Nakai,
 T. Vreven, K. Throssell, J. A. Montgomery, Jr., J. E. Peralta,
 F. Ogliaro, M. J. Bearpark, J. J. Heyd, E. N. Brothers, K. N. Kudin,
 V. N. Staroverov, T. A. Keith, R. Kobayashi, J. Normand,
 K. Raghavachari, A. P. Rendell, J. C. Burant, S. S. Iyengar,
 J. Tomasi, M. Cossi, J. M. Millam, M. Klene, C. Adamo, R. Cammi,
 J. W. Ochterski, R. L. Martin, K. Morokuma, O. Farkas,
 J. B. Foresman, and D. J. Fox, Gaussian, Inc., Wallingford CT, 2019.

 ******************************************
 Gaussian 16:  ES64L-G16RevC.01  3-Jul-2019
                26-Feb-2025
 ******************************************
 %NProcShared=16
 Will use up to   16 processors via shared memory.
 %Mem=32GB
 %chk=NVAMCAUNVWYMKC-UHFFFAOYSA-N_10.chk
 --------------------------------------------------------------
 #N OPT=CalcAll FREQ=NORAMAN Integral(Ultrafine) wB97XD def2SVP
 --------------------------------------------------------------
 1/10=4,18=20,19=15,26=4,38=1/1,3;
 2/9=110,12=2,17=6,18=5,40=1/2;
 3/5=43,7=101,11=2,25=1,30=1,71=2,74=-58,75=-5,140=1/1,2,3;
 4//1;
 5/5=2,38=5/2;
 8/6=4,10=90,11=11/1;
 11/6=1,8=1,9=11,15=111,16=1/1,2,10;
 10/6=1/2;
 6/7=2,8=2,9=2,10=2,18=1,28=1/1;
 7/10=1,25=1/1,2,3,16;
 1/10=4,18=20,19=15,26=4/3(3);
 2/9=110/2;
 7/8=1,9=1,25=1,44=-1/16;
 99//99;
 2/9=110/2;
 3/5=43,7=101,11=2,25=1,30=1,71=2,74=-58,75=-5,140=1/1,2,3;
 4/5=5,16=3,69=1/1;
 5/5=2,38=5/2;
 8/6=4,10=90,11=11/1;
 11/6=1,8=1,9=11,15=111,16=1/1,2,10;
 10/6=1/2;
 7/10=1,25=1/1,2,3,16;
 1/10=4,18=20,19=15,26=4/3(-8);
 2/9=110/2;
 6/7=2,8=2,9=2,10=2,18=1,19=2,28=1/1;
 7/8=1,9=1,25=1,44=-1/16;
 99//99;
 ------------------------------
 NVAMCAUNVWYMKC-UHFFFAOYSA-N_10
 ------------------------------
 Symbolic Z-matrix:
 Charge =  0 Multiplicity = 1
 C                    -4.81144  -0.38878   1.37361
 O                    -4.88835  -0.72608   0.01703
 C                    -4.14662   0.10465  -0.82324
 C                    -2.68824  -0.00379  -0.6401
 C                    -1.49169  -0.09131  -0.46861
 C                    -0.07527  -0.23403  -0.27635
 C                     0.47929  -1.50592  -0.25718
 C                     1.86402  -1.67358  -0.0653
 O                     2.40721  -2.90446  -0.04386
 C                     2.72096  -0.58425   0.10658
 C                     4.19945  -0.7412    0.30954
 C                     2.15446   0.70263   0.08504
 O                     2.9719    1.73299   0.24863
 C                     0.76063   0.89902  -0.10273
 C                     0.22735   2.25078  -0.11061
 O                     0.9114    3.25661   0.03399
 H                    -3.78135  -0.47841   1.76537
 H                    -5.16328   0.64509   1.55727
 H                    -5.45967  -1.08376   1.9226
 H                    -4.43849   1.16761  -0.69652
 H                    -4.39987  -0.1802   -1.85566
 H                    -0.1648   -2.37762  -0.39211
 H                     1.72271  -3.5675   -0.17367
 H                     4.49025  -1.79742   0.29441
 H                     4.50769  -0.30126   1.2702
 H                     4.75678  -0.20717  -0.47495
 H                     2.42521   2.55573   0.21047
 H                    -0.86982   2.34709  -0.25757


 GradGradGradGradGradGradGradGradGradGradGradGradGradGradGradGradGradGrad
 Berny optimization.
 Initialization pass.
                           ----------------------------
                           !    Initial Parameters    !
                           ! (Angstroms and Degrees)  !
 --------------------------                            --------------------------
 ! Name  Definition              Value          Derivative Info.                !
 --------------------------------------------------------------------------------
 ! R1    R(1,2)                  1.4            calculate D2E/DX2 analytically  !
 ! R2    R(1,17)                 1.1057         calculate D2E/DX2 analytically  !
 ! R3    R(1,18)                 1.1074         calculate D2E/DX2 analytically  !
 ! R4    R(1,19)                 1.0975         calculate D2E/DX2 analytically  !
 ! R5    R(2,3)                  1.3951         calculate D2E/DX2 analytically  !
 ! R6    R(3,4)                  1.4738         calculate D2E/DX2 analytically  !
 ! R7    R(3,20)                 1.1096         calculate D2E/DX2 analytically  !
 ! R8    R(3,21)                 1.1005         calculate D2E/DX2 analytically  !
 ! R9    R(4,5)                  1.2119         calculate D2E/DX2 analytically  !
 ! R10   R(5,6)                  1.4365         calculate D2E/DX2 analytically  !
 ! R11   R(6,7)                  1.3877         calculate D2E/DX2 analytically  !
 ! R12   R(6,14)                 1.4187         calculate D2E/DX2 analytically  !
 ! R13   R(7,8)                  1.408          calculate D2E/DX2 analytically  !
 ! R14   R(7,22)                 1.0922         calculate D2E/DX2 analytically  !
 ! R15   R(8,9)                  1.3456         calculate D2E/DX2 analytically  !
 ! R16   R(8,10)                 1.3966         calculate D2E/DX2 analytically  !
 ! R17   R(9,23)                 0.9618         calculate D2E/DX2 analytically  !
 ! R18   R(10,11)                1.5006         calculate D2E/DX2 analytically  !
 ! R19   R(10,12)                1.4062         calculate D2E/DX2 analytically  !
 ! R20   R(11,24)                1.0956         calculate D2E/DX2 analytically  !
 ! R21   R(11,25)                1.1006         calculate D2E/DX2 analytically  !
 ! R22   R(11,26)                1.1006         calculate D2E/DX2 analytically  !
 ! R23   R(12,13)                1.3254         calculate D2E/DX2 analytically  !
 ! R24   R(12,14)                1.4201         calculate D2E/DX2 analytically  !
 ! R25   R(13,27)                0.9885         calculate D2E/DX2 analytically  !
 ! R26   R(14,15)                1.4532         calculate D2E/DX2 analytically  !
 ! R27   R(15,16)                1.225          calculate D2E/DX2 analytically  !
 ! R28   R(15,28)                1.1112         calculate D2E/DX2 analytically  !
 ! A1    A(2,1,17)             112.0223         calculate D2E/DX2 analytically  !
 ! A2    A(2,1,18)             111.6028         calculate D2E/DX2 analytically  !
 ! A3    A(2,1,19)             107.4385         calculate D2E/DX2 analytically  !
 ! A4    A(17,1,18)            108.2339         calculate D2E/DX2 analytically  !
 ! A5    A(17,1,19)            108.7643         calculate D2E/DX2 analytically  !
 ! A6    A(18,1,19)            108.6965         calculate D2E/DX2 analytically  !
 ! A7    A(1,2,3)              114.2644         calculate D2E/DX2 analytically  !
 ! A8    A(2,3,4)              114.0439         calculate D2E/DX2 analytically  !
 ! A9    A(2,3,20)             111.2113         calculate D2E/DX2 analytically  !
 ! A10   A(2,3,21)             106.7714         calculate D2E/DX2 analytically  !
 ! A11   A(4,3,20)             108.4567         calculate D2E/DX2 analytically  !
 ! A12   A(4,3,21)             108.9796         calculate D2E/DX2 analytically  !
 ! A13   A(20,3,21)            107.1315         calculate D2E/DX2 analytically  !
 ! A14   A(5,6,7)              119.1408         calculate D2E/DX2 analytically  !
 ! A15   A(5,6,14)             121.1978         calculate D2E/DX2 analytically  !
 ! A16   A(7,6,14)             119.6611         calculate D2E/DX2 analytically  !
 ! A17   A(6,7,8)              120.2692         calculate D2E/DX2 analytically  !
 ! A18   A(6,7,22)             119.6133         calculate D2E/DX2 analytically  !
 ! A19   A(8,7,22)             120.1175         calculate D2E/DX2 analytically  !
 ! A20   A(7,8,9)              120.5386         calculate D2E/DX2 analytically  !
 ! A21   A(7,8,10)             121.8263         calculate D2E/DX2 analytically  !
 ! A22   A(9,8,10)             117.635          calculate D2E/DX2 analytically  !
 ! A23   A(8,9,23)             109.9483         calculate D2E/DX2 analytically  !
 ! A24   A(8,10,11)            122.6574         calculate D2E/DX2 analytically  !
 ! A25   A(8,10,12)            117.6919         calculate D2E/DX2 analytically  !
 ! A26   A(11,10,12)           119.6506         calculate D2E/DX2 analytically  !
 ! A27   A(10,11,24)           111.1293         calculate D2E/DX2 analytically  !
 ! A28   A(10,11,25)           110.6203         calculate D2E/DX2 analytically  !
 ! A29   A(10,11,26)           110.5967         calculate D2E/DX2 analytically  !
 ! A30   A(24,11,25)           108.8478         calculate D2E/DX2 analytically  !
 ! A31   A(24,11,26)           108.8765         calculate D2E/DX2 analytically  !
 ! A32   A(25,11,26)           106.6411         calculate D2E/DX2 analytically  !
 ! A33   A(10,12,13)           117.4569         calculate D2E/DX2 analytically  !
 ! A34   A(10,12,14)           121.6007         calculate D2E/DX2 analytically  !
 ! A35   A(13,12,14)           120.9423         calculate D2E/DX2 analytically  !
 ! A36   A(12,13,27)           107.5278         calculate D2E/DX2 analytically  !
 ! A37   A(6,14,12)            118.9503         calculate D2E/DX2 analytically  !
 ! A38   A(6,14,15)            121.7381         calculate D2E/DX2 analytically  !
 ! A39   A(12,14,15)           119.3116         calculate D2E/DX2 analytically  !
 ! A40   A(14,15,16)           123.9342         calculate D2E/DX2 analytically  !
 ! A41   A(14,15,28)           116.3405         calculate D2E/DX2 analytically  !
 ! A42   A(16,15,28)           119.7253         calculate D2E/DX2 analytically  !
 ! A43   L(3,4,5,17,-1)        179.0413         calculate D2E/DX2 analytically  !
 ! A44   L(4,5,6,28,-1)        181.5797         calculate D2E/DX2 analytically  !
 ! A45   L(3,4,5,17,-2)        180.2913         calculate D2E/DX2 analytically  !
 ! A46   L(4,5,6,28,-2)        180.3521         calculate D2E/DX2 analytically  !
 ! D1    D(17,1,2,3)           -62.692          calculate D2E/DX2 analytically  !
 ! D2    D(18,1,2,3)            58.8544         calculate D2E/DX2 analytically  !
 ! D3    D(19,1,2,3)           177.9172         calculate D2E/DX2 analytically  !
 ! D4    D(1,2,3,4)             67.0621         calculate D2E/DX2 analytically  !
 ! D5    D(1,2,3,20)           -55.9633         calculate D2E/DX2 analytically  !
 ! D6    D(1,2,3,21)          -172.5129         calculate D2E/DX2 analytically  !
 ! D7    D(2,3,6,7)             49.2264         calculate D2E/DX2 analytically  !
 ! D8    D(2,3,6,14)          -130.4402         calculate D2E/DX2 analytically  !
 ! D9    D(20,3,6,7)           173.5575         calculate D2E/DX2 analytically  !
 ! D10   D(20,3,6,14)           -6.1091         calculate D2E/DX2 analytically  !
 ! D11   D(21,3,6,7)           -69.7309         calculate D2E/DX2 analytically  !
 ! D12   D(21,3,6,14)          110.6025         calculate D2E/DX2 analytically  !
 ! D13   D(5,6,7,8)           -179.7567         calculate D2E/DX2 analytically  !
 ! D14   D(5,6,7,22)             0.2561         calculate D2E/DX2 analytically  !
 ! D15   D(14,6,7,8)             0.0596         calculate D2E/DX2 analytically  !
 ! D16   D(14,6,7,22)         -179.9276         calculate D2E/DX2 analytically  !
 ! D17   D(5,6,14,12)          179.9388         calculate D2E/DX2 analytically  !
 ! D18   D(5,6,14,15)            0.0164         calculate D2E/DX2 analytically  !
 ! D19   D(7,6,14,12)            0.1264         calculate D2E/DX2 analytically  !
 ! D20   D(7,6,14,15)         -179.7961         calculate D2E/DX2 analytically  !
 ! D21   D(6,7,8,9)            179.9048         calculate D2E/DX2 analytically  !
 ! D22   D(6,7,8,10)            -0.1901         calculate D2E/DX2 analytically  !
 ! D23   D(22,7,8,9)            -0.1081         calculate D2E/DX2 analytically  !
 ! D24   D(22,7,8,10)          179.797          calculate D2E/DX2 analytically  !
 ! D25   D(7,8,9,23)             0.0312         calculate D2E/DX2 analytically  !
 ! D26   D(10,8,9,23)         -179.8779         calculate D2E/DX2 analytically  !
 ! D27   D(7,8,10,11)         -179.8702         calculate D2E/DX2 analytically  !
 ! D28   D(7,8,10,12)            0.1229         calculate D2E/DX2 analytically  !
 ! D29   D(9,8,10,11)            0.0376         calculate D2E/DX2 analytically  !
 ! D30   D(9,8,10,12)         -179.9693         calculate D2E/DX2 analytically  !
 ! D31   D(8,10,11,24)           0.4396         calculate D2E/DX2 analytically  !
 ! D32   D(8,10,11,25)        -120.5889         calculate D2E/DX2 analytically  !
 ! D33   D(8,10,11,26)         121.4883         calculate D2E/DX2 analytically  !
 ! D34   D(12,10,11,24)       -179.5534         calculate D2E/DX2 analytically  !
 ! D35   D(12,10,11,25)         59.4182         calculate D2E/DX2 analytically  !
 ! D36   D(12,10,11,26)        -58.5047         calculate D2E/DX2 analytically  !
 ! D37   D(8,10,12,13)         179.9983         calculate D2E/DX2 analytically  !
 ! D38   D(8,10,12,14)           0.0699         calculate D2E/DX2 analytically  !
 ! D39   D(11,10,12,13)         -0.0083         calculate D2E/DX2 analytically  !
 ! D40   D(11,10,12,14)       -179.9368         calculate D2E/DX2 analytically  !
 ! D41   D(10,12,13,27)       -179.888          calculate D2E/DX2 analytically  !
 ! D42   D(14,12,13,27)          0.0409         calculate D2E/DX2 analytically  !
 ! D43   D(10,12,14,6)          -0.194          calculate D2E/DX2 analytically  !
 ! D44   D(10,12,14,15)        179.7304         calculate D2E/DX2 analytically  !
 ! D45   D(13,12,14,6)         179.88           calculate D2E/DX2 analytically  !
 ! D46   D(13,12,14,15)         -0.1956         calculate D2E/DX2 analytically  !
 ! D47   D(6,14,15,16)        -179.9231         calculate D2E/DX2 analytically  !
 ! D48   D(6,14,15,28)           0.1364         calculate D2E/DX2 analytically  !
 ! D49   D(12,14,15,16)          0.1547         calculate D2E/DX2 analytically  !
 ! D50   D(12,14,15,28)       -179.7858         calculate D2E/DX2 analytically  !
 --------------------------------------------------------------------------------
 Trust Radius=3.00D-01 FncErr=1.00D-07 GrdErr=1.00D-06 EigMax=2.50D+02 EigMin=1.00D-04
 Number of steps in this run=    134 maximum allowed number of steps=    168.
 GradGradGradGradGradGradGradGradGradGradGradGradGradGradGradGradGradGrad

                          Input orientation:
 ---------------------------------------------------------------------
 Center     Atomic      Atomic             Coordinates (Angstroms)
 Number     Number       Type             X           Y           Z
 ---------------------------------------------------------------------
      1          6           0       -4.811440   -0.388780    1.373610
      2          8           0       -4.888350   -0.726080    0.017030
      3          6           0       -4.146620    0.104650   -0.823240
      4          6           0       -2.688240   -0.003790   -0.640100
      5          6           0       -1.491690   -0.091310   -0.468610
      6          6           0       -0.075270   -0.234030   -0.276350
      7          6           0        0.479290   -1.505920   -0.257180
      8          6           0        1.864020   -1.673580   -0.065300
      9          8           0        2.407210   -2.904460   -0.043860
     10          6           0        2.720960   -0.584250    0.106580
     11          6           0        4.199450   -0.741200    0.309540
     12          6           0        2.154460    0.702630    0.085040
     13          8           0        2.971900    1.732990    0.248630
     14          6           0        0.760630    0.899020   -0.102730
     15          6           0        0.227350    2.250780   -0.110610
     16          8           0        0.911400    3.256610    0.033990
     17          1           0       -3.781350   -0.478410    1.765370
     18          1           0       -5.163280    0.645090    1.557270
     19          1           0       -5.459670   -1.083760    1.922600
     20          1           0       -4.438490    1.167610   -0.696520
     21          1           0       -4.399870   -0.180200   -1.855660
     22          1           0       -0.164800   -2.377620   -0.392110
     23          1           0        1.722710   -3.567500   -0.173670
     24          1           0        4.490250   -1.797420    0.294410
     25          1           0        4.507690   -0.301260    1.270200
     26          1           0        4.756780   -0.207170   -0.474950
     27          1           0        2.425210    2.555730    0.210470
     28          1           0       -0.869820    2.347090   -0.257570
 ---------------------------------------------------------------------
                    Distance matrix (angstroms):
                    1          2          3          4          5
     1  C    0.000000
     2  O    1.399998   0.000000
     3  C    2.347682   1.395109   0.000000
     4  C    2.951478   2.407074   1.473829   0.000000
     5  C    3.808281   3.489424   2.685669   1.211941   0.000000
     6  C    5.017731   4.847053   4.121854   2.648195   1.436516
     7  C    5.647947   5.430921   4.930862   3.526509   2.435280
     8  C    6.948593   6.819020   6.313824   4.882793   3.731893
     9  O    7.774752   7.614082   7.253610   5.893471   4.826556
    10  C    7.640721   7.611158   6.964395   5.491258   4.280217
    11  C    9.080340   9.092519   8.464959   6.991843   5.780739
    12  C    7.167660   7.186585   6.394229   4.947383   3.772437
    13  O    8.145420   8.239186   7.380632   5.986938   4.875053
    14  C    5.906435   5.879308   5.023073   3.605348   2.487482
    15  C    5.878741   5.920167   4.923955   3.723454   2.927225
    16  O    6.916238   7.035567   6.021068   4.903266   4.151628
    17  H    1.105710   2.084102   2.678485   2.684481   3.222275
    18  H    1.107434   2.080392   2.644334   3.372729   4.257587
    19  H    1.097538   2.021272   3.267423   3.926142   4.737901
    20  H    2.616654   2.073063   1.109563   2.106831   3.212546
    21  H    3.262067   2.010862   1.100530   2.106747   3.223247
    22  H    5.353925   5.020648   4.711945   3.473373   2.644561
    23  H    7.429230   7.198343   6.953824   5.689821   4.743759
    24  H    9.469444   9.443667   8.914176   7.457958   6.267106
    25  H    9.320115   9.488755   8.913155   7.451117   6.249808
    26  H    9.746845   9.671600   8.915664   7.449628   6.249547
    27  H    7.898869   8.018470   7.089802   5.781175   4.775990
    28  H    5.067751   5.066395   4.010728   2.996601   2.525283
                    6          7          8          9         10
     6  C    0.000000
     7  C    1.387663   0.000000
     8  C    2.424395   1.407979   0.000000
     9  O    3.653485   2.391296   1.345578   0.000000
    10  C    2.843975   2.450894   1.396613   2.346156   0.000000
    11  C    4.344389   3.839995   2.542454   2.831379   1.500586
    12  C    2.445328   2.793027   2.398610   3.618231   1.406217
    13  O    3.664699   4.118190   3.595924   4.680851   2.335112
    14  C    1.418688   2.426261   2.799489   4.145015   2.467143
    15  C    2.508651   3.767990   4.252216   5.597566   3.781885
    16  O    3.640659   4.790949   5.022362   6.340528   4.246408
    17  H    4.238322   4.826960   6.053923   6.888926   6.711395
    18  H    5.479312   6.305368   7.575745   8.513239   8.110303
    19  H    5.877856   6.340418   7.611575   8.310819   8.394650
    20  H    4.602046   5.614743   6.942077   7.991954   7.414291
    21  H    4.604268   5.302723   6.683703   7.552519   7.397287
    22  H    2.148580   1.092208   2.172231   2.648410   3.434018
    23  H    3.788839   2.408979   1.902274   0.961776   3.158294
    24  H    4.859416   4.059190   2.653641   2.383069   2.153474
    25  H    4.837340   4.473489   3.264324   3.593803   2.150930
    26  H    4.836204   4.475611   3.268980   3.603011   2.150565
    27  H    3.777851   4.527947   4.275283   5.466140   3.155588
    28  H    2.700712   4.082375   4.865864   6.193817   4.649630
                   11         12         13         14         15
    11  C    0.000000
    12  C    2.513370   0.000000
    13  O    2.762645   1.325372   0.000000
    14  C    3.832202   1.420066   2.389283   0.000000
    15  C    4.990596   2.479677   2.815975   1.453171   0.000000
    16  O    5.183598   2.840883   2.571604   2.366359   1.224960
    17  H    8.116752   6.281099   7.266167   5.100656   5.199755
    18  H    9.546693   7.464589   8.311271   6.157336   5.866767
    19  H    9.798873   8.033853   9.045863   6.835606   6.898934
    20  H    8.903354   6.655376   7.491785   5.239807   4.825620
    21  H    8.885444   6.892383   7.901350   5.555919   5.510538
    22  H    4.713477   3.885174   5.210235   3.417094   4.653505
    23  H    3.788892   4.299692   5.462052   4.569511   6.007700
    24  H    1.095625   3.427827   3.843342   4.619369   5.892731
    25  H    1.100648   2.819591   2.745984   4.167261   5.171156
    26  H    1.100559   2.813076   2.733786   4.163102   5.166236
    27  H    3.745329   1.876970   0.988548   2.369306   2.242025
    28  H    5.962939   3.459465   3.923286   2.186149   1.111150
                   16         17         18         19         20
    16  O    0.000000
    17  H    6.242592   0.000000
    18  H    6.785437   1.793123   0.000000
    19  H    7.937014   1.791069   1.791713   0.000000
    20  H    5.789550   3.033499   2.424442   3.601564   0.000000
    21  H    6.602426   3.685560   3.593326   4.026766   1.778114
    22  H    5.751897   4.619649   6.158057   5.921791   5.561092
    23  H    6.875305   6.602805   8.255842   7.883520   7.788134
    24  H    6.198323   8.504286  10.037495  10.107483   9.460219
    25  H    5.207682   8.305706   9.721402  10.019291   9.276837
    26  H    5.200360   8.831323  10.161882  10.530551   9.300113
    27  H    1.677498   7.081321   7.940378   8.851475   7.061153
    28  H    2.021133   4.533513   4.962282   6.131117   3.784079
                   21         22         23         24         25
    21  H    0.000000
    22  H    4.990636   0.000000
    23  H    7.196449   2.241924   0.000000
    24  H    9.288296   4.741037   3.318367   0.000000
    25  H    9.440884   5.376496   4.528708   1.786327   0.000000
    26  H    9.260201   5.379560   4.537419   1.786574   1.765346
    27  H    7.637796   5.604391   6.175355   4.818854   3.690819
    28  H    4.626266   4.778916   6.458376   6.797941   6.185908
                   26         27         28
    26  H    0.000000
    27  H    3.679624   0.000000
    28  H    6.183051   3.334639   0.000000
 Stoichiometry    C12H12O4
 Framework group  C1[X(C12H12O4)]
 Deg. of freedom    78
 Full point group                 C1      NOp   1
 Largest Abelian subgroup         C1      NOp   1
 Largest concise Abelian subgroup C1      NOp   1
                         Standard orientation:
 ---------------------------------------------------------------------
 Center     Atomic      Atomic             Coordinates (Angstroms)
 Number     Number       Type             X           Y           Z
 ---------------------------------------------------------------------
      1          6           0       -4.811440   -0.388780    1.373609
      2          8           0       -4.888350   -0.726080    0.017029
      3          6           0       -4.146620    0.104650   -0.823241
      4          6           0       -2.688240   -0.003790   -0.640101
      5          6           0       -1.491690   -0.091310   -0.468611
      6          6           0       -0.075270   -0.234030   -0.276351
      7          6           0        0.479290   -1.505920   -0.257181
      8          6           0        1.864020   -1.673580   -0.065301
      9          8           0        2.407210   -2.904460   -0.043861
     10          6           0        2.720960   -0.584250    0.106579
     11          6           0        4.199450   -0.741200    0.309539
     12          6           0        2.154460    0.702630    0.085039
     13          8           0        2.971900    1.732990    0.248629
     14          6           0        0.760630    0.899020   -0.102731
     15          6           0        0.227349    2.250780   -0.110611
     16          8           0        0.911399    3.256610    0.033989
     17          1           0       -3.781350   -0.478410    1.765369
     18          1           0       -5.163280    0.645090    1.557269
     19          1           0       -5.459670   -1.083760    1.922599
     20          1           0       -4.438490    1.167610   -0.696521
     21          1           0       -4.399870   -0.180200   -1.855661
     22          1           0       -0.164800   -2.377620   -0.392111
     23          1           0        1.722710   -3.567500   -0.173671
     24          1           0        4.490250   -1.797420    0.294409
     25          1           0        4.507690   -0.301260    1.270199
     26          1           0        4.756780   -0.207169   -0.474951
     27          1           0        2.425209    2.555730    0.210469
     28          1           0       -0.869821    2.347090   -0.257571
 ---------------------------------------------------------------------
 Rotational constants (GHZ):           0.8325936           0.2691885           0.2134174
 Standard basis: def2SVP (5D, 7F)
 There are   300 symmetry adapted cartesian basis functions of A   symmetry.
 There are   284 symmetry adapted basis functions of A   symmetry.
   284 basis functions,   484 primitive gaussians,   300 cartesian basis functions
    58 alpha electrons       58 beta electrons
       nuclear repulsion energy      1022.9453011249 Hartrees.
 NAtoms=   28 NActive=   28 NUniq=   28 SFac= 1.00D+00 NAtFMM=   60 NAOKFM=F Big=F
 Integral buffers will be    131072 words long.
 Raffenetti 2 integral format.
 Two-electron integral symmetry is turned on.
 Nuclear repulsion after empirical dispersion term =     1022.9301778368 Hartrees.
 One-electron integrals computed using PRISM.
   1 Symmetry operations used in ECPInt.
 ECPInt:  NShTT=    8778 NPrTT=   32122 LenC2=    7882 LenP2D=   20480.
 LDataN:  DoStor=T MaxTD1= 4 Len=   56
 NBasis=   284 RedAO= T EigKep=  1.80D-04  NBF=   284
 NBsUse=   284 1.00D-06 EigRej= -1.00D+00 NBFU=   284
 ExpMin= 1.22D-01 ExpMax= 2.27D+03 ExpMxC= 3.41D+02 IAcc=3 IRadAn=         5 AccDes= 0.00D+00
 Harris functional with IExCor= 4639 and IRadAn=       5 diagonalized for initial guess.
 HarFok:  IExCor= 4639 AccDes= 0.00D+00 IRadAn=         5 IDoV= 1 UseB2=F ITyADJ=14
 ICtDFT=  3500011 ScaDFX=  1.000000  1.000000  1.000000  1.000000
 FoFCou: FMM=F IPFlag=           0 FMFlag=      100000 FMFlg1=           0
         NFxFlg=           0 DoJE=T BraDBF=F KetDBF=T FulRan=T
         wScrn=  0.000000 ICntrl=       500 IOpCl=  0 I1Cent=   200000004 NGrid=           0
         NMat0=    1 NMatS0=      1 NMatT0=    0 NMatD0=    1 NMtDS0=    0 NMtDT0=    0
 Petite list used in FoFCou.
 Requested convergence on RMS density matrix=1.00D-08 within 128 cycles.
 Requested convergence on MAX density matrix=1.00D-06.
 Requested convergence on             energy=1.00D-06.
 No special actions if energy rises.
 Integral accuracy reduced to 1.0D-05 until final iterations.
 Initial convergence to 1.0D-05 achieved.  Increase integral accuracy.
 SCF Done:  E(RwB97XD) =  -764.523388339     A.U. after   16 cycles
            NFock= 16  Conv=0.71D-08     -V/T= 2.0096
 DoSCS=F DFT=T ScalE2(SS,OS)=  1.000000  1.000000
 Range of M.O.s used for correlation:     1   284
 NBasis=   284 NAE=    58 NBE=    58 NFC=     0 NFV=     0
 NROrb=    284 NOA=    58 NOB=    58 NVA=   226 NVB=   226

 **** Warning!!: The largest alpha MO coefficient is  0.13460549D+02

   1 Symmetry operations used in ECPInt.
 ECPInt:  NShTT=    8778 NPrTT=   32122 LenC2=    7882 LenP2D=   20480.
 LDataN:  DoStor=T MaxTD1= 5 Len=  102
 Symmetrizing basis deriv contribution to polar:
 IMax=3 JMax=2 DiffMx= 0.00D+00
 G2DrvN: will do    29 centers at a time, making    1 passes.
 Calling FoFCou, ICntrl=  3107 FMM=F I1Cent=   0 AccDes= 0.00D+00.
 End of G2Drv F.D. properties file   721 does not exist.
 End of G2Drv F.D. properties file   722 does not exist.
 End of G2Drv F.D. properties file   788 does not exist.
          IDoAtm=1111111111111111111111111111
          Differentiating once with respect to electric field.
                with respect to dipole field.
          Differentiating once with respect to nuclear coordinates.
 Keep R1 ints in memory in canonical form, NReq=1667569914.
          There are    87 degrees of freedom in the 1st order CPHF.  IDoFFX=6 NUNeed=     3.
     84 vectors produced by pass  0 Test12= 1.51D-14 1.15D-09 XBig12= 1.07D+02 6.22D+00.
 AX will form    84 AO Fock derivatives at one time.
     84 vectors produced by pass  1 Test12= 1.51D-14 1.15D-09 XBig12= 1.19D+01 3.99D-01.
     84 vectors produced by pass  2 Test12= 1.51D-14 1.15D-09 XBig12= 4.88D-01 1.25D-01.
     84 vectors produced by pass  3 Test12= 1.51D-14 1.15D-09 XBig12= 7.81D-03 9.74D-03.
     84 vectors produced by pass  4 Test12= 1.51D-14 1.15D-09 XBig12= 7.02D-05 6.03D-04.
     84 vectors produced by pass  5 Test12= 1.51D-14 1.15D-09 XBig12= 3.99D-07 7.25D-05.
     79 vectors produced by pass  6 Test12= 1.51D-14 1.15D-09 XBig12= 1.85D-09 3.65D-06.
     33 vectors produced by pass  7 Test12= 1.51D-14 1.15D-09 XBig12= 7.93D-12 2.23D-07.
      3 vectors produced by pass  8 Test12= 1.51D-14 1.15D-09 XBig12= 3.64D-14 1.38D-08.
 InvSVY:  IOpt=1 It=  1 EMax= 1.78D-14
 Solved reduced A of dimension   619 with    87 vectors.
 Isotropic polarizability for W=    0.000000      149.62 Bohr**3.
 End of Minotr F.D. properties file   721 does not exist.
 End of Minotr F.D. properties file   722 does not exist.
 End of Minotr F.D. properties file   788 does not exist.

 **********************************************************************

            Population analysis using the SCF Density.

 **********************************************************************

 Orbital symmetries:
       Occupied  (A) (A) (A) (A) (A) (A) (A) (A) (A) (A) (A) (A)
                 (A) (A) (A) (A) (A) (A) (A) (A) (A) (A) (A) (A)
                 (A) (A) (A) (A) (A) (A) (A) (A) (A) (A) (A) (A)
                 (A) (A) (A) (A) (A) (A) (A) (A) (A) (A) (A) (A)
                 (A) (A) (A) (A) (A) (A) (A) (A) (A) (A)
       Virtual   (A) (A) (A) (A) (A) (A) (A) (A) (A) (A) (A) (A)
                 (A) (A) (A) (A) (A) (A) (A) (A) (A) (A) (A) (A)
                 (A) (A) (A) (A) (A) (A) (A) (A) (A) (A) (A) (A)
                 (A) (A) (A) (A) (A) (A) (A) (A) (A) (A) (A) (A)
                 (A) (A) (A) (A) (A) (A) (A) (A) (A) (A) (A) (A)
                 (A) (A) (A) (A) (A) (A) (A) (A) (A) (A) (A) (A)
                 (A) (A) (A) (A) (A) (A) (A) (A) (A) (A) (A) (A)
                 (A) (A) (A) (A) (A) (A) (A) (A) (A) (A) (A) (A)
                 (A) (A) (A) (A) (A) (A) (A) (A) (A) (A) (A) (A)
                 (A) (A) (A) (A) (A) (A) (A) (A) (A) (A) (A) (A)
                 (A) (A) (A) (A) (A) (A) (A) (A) (A) (A) (A) (A)
                 (A) (A) (A) (A) (A) (A) (A) (A) (A) (A) (A) (A)
                 (A) (A) (A) (A) (A) (A) (A) (A) (A) (A) (A) (A)
                 (A) (A) (A) (A) (A) (A) (A) (A) (A) (A) (A) (A)
                 (A) (A) (A) (A) (A) (A) (A) (A) (A) (A) (A) (A)
                 (A) (A) (A) (A) (A) (A) (A) (A) (A) (A) (A) (A)
                 (A) (A) (A) (A) (A) (A) (A) (A) (A) (A) (A) (A)
                 (A) (A) (A) (A) (A) (A) (A) (A) (A) (A) (A) (A)
                 (A) (A) (A) (A) (A) (A) (A) (A) (A) (A)
 The electronic state is 1-A.
 Alpha  occ. eigenvalues --  -19.30910 -19.28471 -19.27149 -19.26572 -10.39744
 Alpha  occ. eigenvalues --  -10.38654 -10.38287 -10.38050 -10.35383 -10.34740
 Alpha  occ. eigenvalues --  -10.31810 -10.31733 -10.31530 -10.31484 -10.31108
 Alpha  occ. eigenvalues --  -10.29478  -1.18049  -1.17287  -1.14836  -1.13896
 Alpha  occ. eigenvalues --   -0.97354  -0.90534  -0.87506  -0.85697  -0.82846
 Alpha  occ. eigenvalues --   -0.78848  -0.76349  -0.74812  -0.71906  -0.70084
 Alpha  occ. eigenvalues --   -0.66811  -0.62640  -0.61331  -0.59698  -0.58948
 Alpha  occ. eigenvalues --   -0.58591  -0.57230  -0.56030  -0.54937  -0.54298
 Alpha  occ. eigenvalues --   -0.51318  -0.51147  -0.51084  -0.50201  -0.49255
 Alpha  occ. eigenvalues --   -0.48649  -0.47357  -0.46855  -0.45755  -0.44804
 Alpha  occ. eigenvalues --   -0.44422  -0.42303  -0.37533  -0.36915  -0.36028
 Alpha  occ. eigenvalues --   -0.34790  -0.31622  -0.30431
 Alpha virt. eigenvalues --   -0.00836   0.03779   0.09797   0.11161   0.12007
 Alpha virt. eigenvalues --    0.13550   0.14441   0.15859   0.17406   0.18483
 Alpha virt. eigenvalues --    0.19114   0.20344   0.21394   0.21468   0.22187
 Alpha virt. eigenvalues --    0.22807   0.22946   0.24617   0.27489   0.28125
 Alpha virt. eigenvalues --    0.29079   0.29628   0.30280   0.31482   0.33262
 Alpha virt. eigenvalues --    0.34568   0.35787   0.36677   0.38143   0.40496
 Alpha virt. eigenvalues --    0.41648   0.43405   0.43880   0.44854   0.47649
 Alpha virt. eigenvalues --    0.50748   0.51843   0.52723   0.53624   0.53860
 Alpha virt. eigenvalues --    0.54581   0.54964   0.56361   0.57214   0.57991
 Alpha virt. eigenvalues --    0.58872   0.60889   0.61210   0.61961   0.63259
 Alpha virt. eigenvalues --    0.65340   0.66774   0.67098   0.68584   0.69174
 Alpha virt. eigenvalues --    0.69413   0.70046   0.70857   0.70944   0.72514
 Alpha virt. eigenvalues --    0.73448   0.73791   0.74060   0.74933   0.75327
 Alpha virt. eigenvalues --    0.75669   0.76120   0.76763   0.77126   0.77980
 Alpha virt. eigenvalues --    0.78964   0.81071   0.83130   0.83464   0.85727
 Alpha virt. eigenvalues --    0.86798   0.87641   0.88037   0.90064   0.92465
 Alpha virt. eigenvalues --    0.94504   0.95597   0.96527   0.98609   1.02699
 Alpha virt. eigenvalues --    1.04681   1.06397   1.06774   1.08904   1.11501
 Alpha virt. eigenvalues --    1.11887   1.13408   1.16084   1.17229   1.19141
 Alpha virt. eigenvalues --    1.21819   1.22880   1.26614   1.27316   1.28340
 Alpha virt. eigenvalues --    1.29162   1.30453   1.32698   1.33428   1.34152
 Alpha virt. eigenvalues --    1.36372   1.37359   1.38442   1.40372   1.41990
 Alpha virt. eigenvalues --    1.43420   1.46206   1.46969   1.51223   1.51539
 Alpha virt. eigenvalues --    1.55679   1.56175   1.57371   1.59357   1.60045
 Alpha virt. eigenvalues --    1.60961   1.62353   1.62687   1.62961   1.63735
 Alpha virt. eigenvalues --    1.63912   1.66963   1.68686   1.70255   1.74090
 Alpha virt. eigenvalues --    1.76939   1.77913   1.79245   1.79867   1.81276
 Alpha virt. eigenvalues --    1.82432   1.84176   1.84696   1.85175   1.86492
 Alpha virt. eigenvalues --    1.88215   1.88466   1.89298   1.90769   1.90974
 Alpha virt. eigenvalues --    1.92374   1.93433   1.94609   1.96856   1.97291
 Alpha virt. eigenvalues --    1.97831   1.99033   2.00040   2.01280   2.02349
 Alpha virt. eigenvalues --    2.04104   2.04983   2.07636   2.09250   2.10726
 Alpha virt. eigenvalues --    2.11318   2.14535   2.16448   2.19273   2.21686
 Alpha virt. eigenvalues --    2.23812   2.24598   2.27038   2.28225   2.29472
 Alpha virt. eigenvalues --    2.31736   2.33645   2.34220   2.36672   2.37694
 Alpha virt. eigenvalues --    2.39593   2.40208   2.40711   2.44932   2.45258
 Alpha virt. eigenvalues --    2.49887   2.51854   2.56771   2.60862   2.61346
 Alpha virt. eigenvalues --    2.66935   2.67671   2.71079   2.72719   2.73495
 Alpha virt. eigenvalues --    2.75834   2.77026   2.79626   2.82699   2.83307
 Alpha virt. eigenvalues --    2.86040   2.89792   2.91327   2.92090   2.93750
 Alpha virt. eigenvalues --    2.97210   2.98176   2.98628   2.99908   3.03159
 Alpha virt. eigenvalues --    3.04567   3.06479   3.08525   3.09452   3.10435
 Alpha virt. eigenvalues --    3.17995   3.19838   3.20759   3.25764   3.29879
 Alpha virt. eigenvalues --    3.37255   3.40437   3.43456   3.46652   3.58194
 Alpha virt. eigenvalues --    3.58890   3.62796   3.72440   3.74932   3.87827
 Alpha virt. eigenvalues --    3.94905
          Condensed to atoms (all electrons):
               1          2          3          4          5          6
     1  C    4.423986   0.309875  -0.046400  -0.007746   0.001215  -0.000024
     2  O    0.309875   7.951105   0.358882  -0.051566  -0.019465  -0.000275
     3  C   -0.046400   0.358882   4.515297   0.220134  -0.122147   0.003770
     4  C   -0.007746  -0.051566   0.220134   5.458364   0.826197  -0.189489
     5  C    0.001215  -0.019465  -0.122147   0.826197   5.318051   0.202849
     6  C   -0.000024  -0.000275   0.003770  -0.189489   0.202849   5.341556
     7  C   -0.000001  -0.000001  -0.000036  -0.007635  -0.066126   0.388397
     8  C   -0.000000   0.000000   0.000016   0.000390   0.010536   0.083245
     9  O    0.000000   0.000000   0.000000   0.000000  -0.000144   0.005265
    10  C   -0.000000  -0.000000  -0.000001   0.000016  -0.000929  -0.070210
    11  C   -0.000000  -0.000000  -0.000000   0.000000   0.000028  -0.000334
    12  C    0.000000   0.000000   0.000006  -0.000391   0.010649   0.015451
    13  O    0.000000  -0.000000  -0.000000  -0.000002  -0.000084   0.001778
    14  C    0.000003   0.000002  -0.000377  -0.005526  -0.046994   0.271684
    15  C   -0.000004  -0.000001   0.000036  -0.003224  -0.021425  -0.025395
    16  O   -0.000000  -0.000000   0.000000   0.000026  -0.000071   0.003936
    17  H    0.401209  -0.034953  -0.019503   0.007494   0.015331   0.001053
    18  H    0.385712  -0.034992   0.010737  -0.007791  -0.003380  -0.000083
    19  H    0.402805  -0.024156   0.005381   0.000214   0.000068   0.000003
    20  H   -0.009169  -0.031574   0.421431  -0.044940  -0.017747  -0.000567
    21  H    0.007169  -0.024091   0.356722  -0.006680   0.007176   0.000134
    22  H   -0.000001  -0.000001  -0.000081  -0.000299  -0.013619  -0.044652
    23  H   -0.000000  -0.000000   0.000000   0.000002  -0.000053   0.001073
    24  H   -0.000000  -0.000000   0.000000  -0.000000   0.000002  -0.000075
    25  H    0.000000   0.000000   0.000000   0.000000   0.000001   0.000031
    26  H   -0.000000  -0.000000  -0.000000  -0.000000   0.000000   0.000019
    27  H   -0.000000  -0.000000  -0.000000  -0.000002   0.000046  -0.000195
    28  H    0.000006   0.000004   0.000036   0.002154   0.014985  -0.013423
               7          8          9         10         11         12
     1  C   -0.000001  -0.000000   0.000000  -0.000000  -0.000000   0.000000
     2  O   -0.000001   0.000000   0.000000  -0.000000  -0.000000   0.000000
     3  C   -0.000036   0.000016   0.000000  -0.000001  -0.000000   0.000006
     4  C   -0.007635   0.000390   0.000000   0.000016   0.000000  -0.000391
     5  C   -0.066126   0.010536  -0.000144  -0.000929   0.000028   0.010649
     6  C    0.388397   0.083245   0.005265  -0.070210  -0.000334   0.015451
     7  C    5.249256   0.281691  -0.076523  -0.029767   0.008080  -0.077058
     8  C    0.281691   4.928997   0.449810   0.330512  -0.069557   0.073171
     9  O   -0.076523   0.449810   7.571745  -0.096631  -0.002956   0.002148
    10  C   -0.029767   0.330512  -0.096631   5.552151   0.367476   0.325038
    11  C    0.008080  -0.069557  -0.002956   0.367476   4.483426  -0.044824
    12  C   -0.077058   0.073171   0.002148   0.325038  -0.044824   4.909368
    13  O    0.000297   0.001977  -0.000004  -0.118196   0.009267   0.534585
    14  C   -0.001816  -0.129920   0.000298  -0.063575   0.015971   0.227161
    15  C    0.008855  -0.000768   0.000002   0.009242  -0.000115  -0.067981
    16  O    0.000020  -0.000091  -0.000000   0.000677   0.000027  -0.008577
    17  H    0.000023  -0.000002  -0.000000   0.000000   0.000000  -0.000001
    18  H   -0.000000   0.000000  -0.000000  -0.000000  -0.000000  -0.000000
    19  H   -0.000000  -0.000000   0.000000   0.000000   0.000000  -0.000000
    20  H    0.000009   0.000000  -0.000000   0.000000   0.000000  -0.000001
    21  H   -0.000011  -0.000001   0.000000  -0.000000  -0.000000   0.000000
    22  H    0.441649  -0.081841  -0.004976   0.017652  -0.000180  -0.002953
    23  H   -0.021270  -0.017546   0.333492   0.012571   0.000062  -0.000256
    24  H    0.000780  -0.018970   0.013991  -0.012013   0.388484   0.011957
    25  H   -0.000277   0.004323   0.000374  -0.015887   0.389225  -0.009549
    26  H   -0.000257   0.004523   0.000372  -0.015721   0.389137  -0.009932
    27  H   -0.000042  -0.000130   0.000001   0.008610   0.000117   0.000902
    28  H    0.000423  -0.000130  -0.000000  -0.000107   0.000006   0.006035
              13         14         15         16         17         18
     1  C    0.000000   0.000003  -0.000004  -0.000000   0.401209   0.385712
     2  O   -0.000000   0.000002  -0.000001  -0.000000  -0.034953  -0.034992
     3  C   -0.000000  -0.000377   0.000036   0.000000  -0.019503   0.010737
     4  C   -0.000002  -0.005526  -0.003224   0.000026   0.007494  -0.007791
     5  C   -0.000084  -0.046994  -0.021425  -0.000071   0.015331  -0.003380
     6  C    0.001778   0.271684  -0.025395   0.003936   0.001053  -0.000083
     7  C    0.000297  -0.001816   0.008855   0.000020   0.000023  -0.000000
     8  C    0.001977  -0.129920  -0.000768  -0.000091  -0.000002   0.000000
     9  O   -0.000004   0.000298   0.000002  -0.000000  -0.000000  -0.000000
    10  C   -0.118196  -0.063575   0.009242   0.000677   0.000000  -0.000000
    11  C    0.009267   0.015971  -0.000115   0.000027   0.000000  -0.000000
    12  C    0.534585   0.227161  -0.067981  -0.008577  -0.000001  -0.000000
    13  O    7.552391  -0.088771  -0.003295  -0.034101   0.000000   0.000000
    14  C   -0.088771   5.906187   0.265048  -0.100894  -0.000035  -0.000001
    15  C   -0.003295   0.265048   4.583202   0.606811   0.000023  -0.000001
    16  O   -0.034101  -0.100894   0.606811   7.776439   0.000000   0.000000
    17  H    0.000000  -0.000035   0.000023   0.000000   0.663571  -0.042198
    18  H    0.000000  -0.000001  -0.000001   0.000000  -0.042198   0.690378
    19  H   -0.000000   0.000000   0.000000   0.000000  -0.024941  -0.026036
    20  H    0.000000  -0.000032   0.000097  -0.000001  -0.003269   0.011926
    21  H    0.000000   0.000031  -0.000011  -0.000000   0.000130  -0.000482
    22  H    0.000003   0.017424  -0.000074   0.000001   0.000011   0.000000
    23  H    0.000002   0.000037   0.000001   0.000000   0.000000  -0.000000
    24  H    0.000435  -0.000373   0.000002   0.000000   0.000000   0.000000
    25  H    0.004060   0.000302   0.000010   0.000000  -0.000000  -0.000000
    26  H    0.004203   0.000341   0.000011   0.000000   0.000000   0.000000
    27  H    0.326019  -0.044429  -0.002393   0.076379   0.000000   0.000000
    28  H   -0.000398  -0.098303   0.433165  -0.030598  -0.000025   0.000010
              19         20         21         22         23         24
     1  C    0.402805  -0.009169   0.007169  -0.000001  -0.000000  -0.000000
     2  O   -0.024156  -0.031574  -0.024091  -0.000001  -0.000000  -0.000000
     3  C    0.005381   0.421431   0.356722  -0.000081   0.000000   0.000000
     4  C    0.000214  -0.044940  -0.006680  -0.000299   0.000002  -0.000000
     5  C    0.000068  -0.017747   0.007176  -0.013619  -0.000053   0.000002
     6  C    0.000003  -0.000567   0.000134  -0.044652   0.001073  -0.000075
     7  C   -0.000000   0.000009  -0.000011   0.441649  -0.021270   0.000780
     8  C   -0.000000   0.000000  -0.000001  -0.081841  -0.017546  -0.018970
     9  O    0.000000  -0.000000   0.000000  -0.004976   0.333492   0.013991
    10  C    0.000000   0.000000  -0.000000   0.017652   0.012571  -0.012013
    11  C    0.000000   0.000000  -0.000000  -0.000180   0.000062   0.388484
    12  C   -0.000000  -0.000001   0.000000  -0.002953  -0.000256   0.011957
    13  O   -0.000000   0.000000   0.000000   0.000003   0.000002   0.000435
    14  C    0.000000  -0.000032   0.000031   0.017424   0.000037  -0.000373
    15  C    0.000000   0.000097  -0.000011  -0.000074   0.000001   0.000002
    16  O    0.000000  -0.000001  -0.000000   0.000001   0.000000   0.000000
    17  H   -0.024941  -0.003269   0.000130   0.000011   0.000000   0.000000
    18  H   -0.026036   0.011926  -0.000482   0.000000  -0.000000   0.000000
    19  H    0.613854  -0.000165  -0.000232  -0.000000   0.000000  -0.000000
    20  H   -0.000165   0.656995  -0.027712   0.000003  -0.000000   0.000000
    21  H   -0.000232  -0.027712   0.625561  -0.000000   0.000000  -0.000000
    22  H   -0.000000   0.000003  -0.000000   0.667346   0.006399  -0.000025
    23  H    0.000000  -0.000000   0.000000   0.006399   0.493202  -0.000648
    24  H   -0.000000   0.000000  -0.000000  -0.000025  -0.000648   0.611362
    25  H   -0.000000   0.000000  -0.000000   0.000003   0.000001  -0.019331
    26  H    0.000000  -0.000000   0.000000   0.000002   0.000002  -0.019329
    27  H   -0.000000   0.000000  -0.000000   0.000000  -0.000000   0.000012
    28  H   -0.000000  -0.000011   0.000007   0.000023   0.000000  -0.000000
              25         26         27         28
     1  C    0.000000  -0.000000  -0.000000   0.000006
     2  O    0.000000  -0.000000  -0.000000   0.000004
     3  C    0.000000  -0.000000  -0.000000   0.000036
     4  C    0.000000  -0.000000  -0.000002   0.002154
     5  C    0.000001   0.000000   0.000046   0.014985
     6  C    0.000031   0.000019  -0.000195  -0.013423
     7  C   -0.000277  -0.000257  -0.000042   0.000423
     8  C    0.004323   0.004523  -0.000130  -0.000130
     9  O    0.000374   0.000372   0.000001  -0.000000
    10  C   -0.015887  -0.015721   0.008610  -0.000107
    11  C    0.389225   0.389137   0.000117   0.000006
    12  C   -0.009549  -0.009932   0.000902   0.006035
    13  O    0.004060   0.004203   0.326019  -0.000398
    14  C    0.000302   0.000341  -0.044429  -0.098303
    15  C    0.000010   0.000011  -0.002393   0.433165
    16  O    0.000000   0.000000   0.076379  -0.030598
    17  H   -0.000000   0.000000   0.000000  -0.000025
    18  H   -0.000000   0.000000   0.000000   0.000010
    19  H   -0.000000   0.000000  -0.000000  -0.000000
    20  H    0.000000  -0.000000   0.000000  -0.000011
    21  H   -0.000000   0.000000  -0.000000   0.000007
    22  H    0.000003   0.000002   0.000000   0.000023
    23  H    0.000001   0.000002  -0.000000   0.000000
    24  H   -0.019331  -0.019329   0.000012  -0.000000
    25  H    0.612264  -0.019921  -0.000018   0.000000
    26  H   -0.019921   0.612104  -0.000018   0.000000
    27  H   -0.000018  -0.000018   0.426955   0.002371
    28  H    0.000000   0.000000   0.002371   0.654511
 Mulliken charges:
               1
     1  C    0.131366
     2  O   -0.398794
     3  C    0.296097
     4  C   -0.189700
     5  C   -0.094952
     6  C    0.024475
     7  C   -0.098660
     8  C    0.149766
     9  O   -0.196265
    10  C   -0.200907
    11  C    0.066659
    12  C    0.105052
    13  O   -0.190168
    14  C   -0.123443
    15  C    0.218183
    16  O   -0.289983
    17  H    0.036082
    18  H    0.016201
    19  H    0.053204
    20  H    0.044725
    21  H    0.062288
    22  H   -0.001814
    23  H    0.192930
    24  H    0.043738
    25  H    0.054389
    26  H    0.054463
    27  H    0.205813
    28  H    0.029256
 Sum of Mulliken charges =  -0.00000
 Mulliken charges with hydrogens summed into heavy atoms:
               1
     1  C    0.236853
     2  O   -0.398794
     3  C    0.403110
     4  C   -0.189700
     5  C   -0.094952
     6  C    0.024475
     7  C   -0.100474
     8  C    0.149766
     9  O   -0.003335
    10  C   -0.200907
    11  C    0.219249
    12  C    0.105052
    13  O    0.015645
    14  C   -0.123443
    15  C    0.247439
    16  O   -0.289983
 APT charges:
               1
     1  C    0.484503
     2  O   -0.818754
     3  C    0.740070
     4  C   -0.215739
     5  C   -0.097725
     6  C    0.443443
     7  C   -0.413510
     8  C    0.813433
     9  O   -0.800191
    10  C   -0.211790
    11  C    0.025593
    12  C    0.612805
    13  O   -0.731237
    14  C   -0.600066
    15  C    0.983252
    16  O   -0.828786
    17  H   -0.030802
    18  H   -0.052940
    19  H   -0.009447
    20  H   -0.062388
    21  H   -0.036314
    22  H    0.044186
    23  H    0.333196
    24  H    0.028929
    25  H   -0.004324
    26  H   -0.003696
    27  H    0.418483
    28  H   -0.010182
 Sum of APT charges =  -0.00000
 APT charges with hydrogens summed into heavy atoms:
               1
     1  C    0.391313
     2  O   -0.818754
     3  C    0.641367
     4  C   -0.215739
     5  C   -0.097725
     6  C    0.443443
     7  C   -0.369325
     8  C    0.813433
     9  O   -0.466995
    10  C   -0.211790
    11  C    0.046503
    12  C    0.612805
    13  O   -0.312753
    14  C   -0.600066
    15  C    0.973069
    16  O   -0.828786
 Electronic spatial extent (au):  <R**2>=           4955.3601
 Charge=             -0.0000 electrons
 Dipole moment (field-independent basis, Debye):
    X=             -1.8937    Y=             -2.4605    Z=              0.0867  Tot=              3.1061
 Quadrupole moment (field-independent basis, Debye-Ang):
   XX=            -94.2708   YY=            -92.0336   ZZ=            -90.7414
   XY=             -8.7040   XZ=             -2.2743   YZ=             -0.3562
 Traceless Quadrupole moment (field-independent basis, Debye-Ang):
   XX=             -1.9222   YY=              0.3150   ZZ=              1.6072
   XY=             -8.7040   XZ=             -2.2743   YZ=             -0.3562
 Octapole moment (field-independent basis, Debye-Ang**2):
  XXX=             -5.6662  YYY=            -68.4791  ZZZ=              4.8674  XYY=             -4.3920
  XXY=             28.7154  XXZ=             13.2183  XZZ=            -15.5251  YZZ=              1.8361
  YYZ=             -3.4946  XYZ=              4.9511
 Hexadecapole moment (field-independent basis, Debye-Ang**3):
 XXXX=          -4795.4675 YYYY=          -1307.9618 ZZZZ=           -259.3553 XXXY=           -107.0281
 XXXZ=            -79.4069 YYYX=            -35.6365 YYYZ=             14.9768 ZZZX=             -0.3145
 ZZZY=              0.9253 XXYY=          -1049.7744 XXZZ=           -746.2505 YYZZ=           -265.9280
 XXYZ=            -27.3632 YYXZ=             -9.9445 ZZXY=             19.4307
 N-N= 1.022930177837D+03 E-N=-3.827907573896D+03  KE= 7.572694402706D+02
  Exact polarizability:     212.353      -7.483     154.796      11.251       1.153      81.707
 Approx polarizability:     206.616      -2.468     185.268      15.054       3.207      96.095
   1 Symmetry operations used in ECPInt.
 ECPInt:  NShTT=    8778 NPrTT=   32122 LenC2=    7882 LenP2D=   20480.
 LDataN:  DoStor=T MaxTD1= 6 Len=  172
 Calling FoFJK, ICntrl=    100127 FMM=F ISym2X=0 I1Cent= 0 IOpClX= 0 NMat=1 NMatS=1 NMatT=0.
 ***** Axes restored to original set *****
 -------------------------------------------------------------------
 Center     Atomic                   Forces (Hartrees/Bohr)
 Number     Number              X              Y              Z
 -------------------------------------------------------------------
      1        6          -0.000002461   -0.000000566    0.000000646
      2        8          -0.000000118   -0.000001948    0.000003603
      3        6          -0.000003247    0.000004215   -0.000004398
      4        6           0.000001880    0.000000237    0.000000823
      5        6           0.000005640   -0.000001149    0.000000347
      6        6          -0.000007108    0.000005887    0.000000146
      7        6           0.000003104   -0.000006811    0.000000067
      8        6           0.000004402   -0.000001117    0.000004471
      9        8          -0.000001329    0.000004882    0.000000347
     10        6          -0.000007553   -0.000004844   -0.000002939
     11        6           0.000005314    0.000003176    0.000002012
     12        6          -0.000000704   -0.000002025   -0.000001555
     13        8          -0.000000622    0.000006117   -0.000000492
     14        6           0.000004594   -0.000001018   -0.000001736
     15        6          -0.000003468   -0.000002093    0.000000088
     16        8           0.000004249    0.000003028   -0.000000917
     17        1          -0.000001237   -0.000000087    0.000000654
     18        1           0.000000956    0.000000229    0.000000024
     19        1           0.000001571    0.000000920    0.000000137
     20        1           0.000001020   -0.000002808    0.000000466
     21        1           0.000000208    0.000000359    0.000001199
     22        1           0.000000573    0.000000873    0.000000765
     23        1           0.000000534   -0.000000809    0.000000982
     24        1          -0.000003772   -0.000002417   -0.000001693
     25        1           0.000000348    0.000000257   -0.000002409
     26        1          -0.000000806   -0.000000855    0.000001274
     27        1          -0.000000547   -0.000000050   -0.000000603
     28        1          -0.000001422   -0.000001583   -0.000001307
 -------------------------------------------------------------------
 Cartesian Forces:  Max     0.000007553 RMS     0.000002721
 FormGI is forming the generalized inverse of G from B-inverse, IUseBI=4.

 GradGradGradGradGradGradGradGradGradGradGradGradGradGradGradGradGradGrad
 Berny optimization.
 Internal  Forces:  Max     0.000007169 RMS     0.000002088
 Search for a local minimum.
 Step number   1 out of a maximum of  134
 All quantities printed in internal units (Hartrees-Bohrs-Radians)
 Mixed Optimization -- En-DIIS/RFO-DIIS
 Second derivative matrix not updated -- analytic derivatives used.
 ITU=  0
     Eigenvalues ---   -0.00002   0.00037   0.00549   0.00804   0.00875
     Eigenvalues ---    0.01053   0.01273   0.01443   0.01531   0.01611
     Eigenvalues ---    0.01756   0.01954   0.02212   0.03176   0.03595
     Eigenvalues ---    0.04273   0.04418   0.05608   0.05626   0.05853
     Eigenvalues ---    0.06114   0.06267   0.07951   0.08596   0.08712
     Eigenvalues ---    0.09817   0.10744   0.11619   0.11718   0.12244
     Eigenvalues ---    0.13643   0.14016   0.14111   0.14738   0.15162
     Eigenvalues ---    0.16988   0.18022   0.18458   0.18724   0.19133
     Eigenvalues ---    0.19520   0.20516   0.20660   0.21730   0.23229
     Eigenvalues ---    0.24202   0.24738   0.25163   0.25356   0.31363
     Eigenvalues ---    0.31660   0.32068   0.32487   0.32642   0.33013
     Eigenvalues ---    0.33280   0.34200   0.34242   0.34293   0.34955
     Eigenvalues ---    0.35183   0.35853   0.36328   0.37425   0.39353
     Eigenvalues ---    0.41423   0.41766   0.43738   0.45482   0.45976
     Eigenvalues ---    0.48349   0.51246   0.54133   0.55371   0.59713
     Eigenvalues ---    0.76655   0.86464   1.10039
 RFO step:  Lambda=-1.65975657D-05 EMin=-1.61773529D-05
 I=     1 Eig=   -1.62D-05 Dot1=  1.59D-06
 I=     1 Stepn=  6.00D-01 RXN=   6.00D-01 EDone=F
 Mixed    1 eigenvectors in step.  Raw Step.Grad=  1.59D-06.
 RFO eigenvector is Hessian eigenvector with negative curvature.
 Taking step of  6.00D-01 in eigenvector direction(s).  Step.Grad= -1.79D-08.
 Linear search not attempted -- first point.
 Iteration  1 RMS(Cart)=  0.13807705 RMS(Int)=  0.01139587
 Iteration  2 RMS(Cart)=  0.03294210 RMS(Int)=  0.00029710
 Iteration  3 RMS(Cart)=  0.00056526 RMS(Int)=  0.00001436
 Iteration  4 RMS(Cart)=  0.00000016 RMS(Int)=  0.00001436
 Variable       Old X    -DE/DX   Delta X   Delta X   Delta X     New X
                                 (Linear)    (Quad)   (Total)
    R1        2.64561  -0.00000   0.00000  -0.00007  -0.00007   2.64554
    R2        2.08949  -0.00000   0.00000   0.00008   0.00008   2.08957
    R3        2.09275  -0.00000   0.00000  -0.00006  -0.00006   2.09268
    R4        2.07405  -0.00000   0.00000   0.00003   0.00003   2.07407
    R5        2.63637   0.00000   0.00000  -0.00034  -0.00034   2.63603
    R6        2.78513   0.00000   0.00000  -0.00019  -0.00019   2.78494
    R7        2.09677  -0.00000   0.00000   0.00004   0.00004   2.09681
    R8        2.07970  -0.00000   0.00000   0.00017   0.00017   2.07987
    R9        2.29024   0.00000   0.00000   0.00000   0.00000   2.29024
   R10        2.71462  -0.00000   0.00000  -0.00042  -0.00042   2.71421
   R11        2.62230   0.00001   0.00000   0.00021   0.00021   2.62252
   R12        2.68093  -0.00000   0.00000  -0.00008  -0.00008   2.68086
   R13        2.66069  -0.00000   0.00000  -0.00012  -0.00012   2.66057
   R14        2.06397  -0.00000   0.00000   0.00002   0.00002   2.06400
   R15        2.54277  -0.00000   0.00000   0.00002   0.00002   2.54280
   R16        2.63922  -0.00001   0.00000   0.00002   0.00002   2.63924
   R17        1.81749   0.00000   0.00000  -0.00001  -0.00001   1.81749
   R18        2.83570   0.00000   0.00000   0.00003   0.00003   2.83572
   R19        2.65737   0.00000   0.00000  -0.00028  -0.00028   2.65709
   R20        2.07043   0.00000   0.00000   0.00011   0.00011   2.07054
   R21        2.07992  -0.00000   0.00000   0.00030   0.00030   2.08022
   R22        2.07975  -0.00000   0.00000  -0.00031  -0.00031   2.07945
   R23        2.50459   0.00000   0.00000  -0.00001  -0.00001   2.50458
   R24        2.68354  -0.00000   0.00000   0.00026   0.00027   2.68380
   R25        1.86809   0.00000   0.00000   0.00005   0.00005   1.86814
   R26        2.74609  -0.00000   0.00000  -0.00024  -0.00024   2.74585
   R27        2.31484   0.00000   0.00000   0.00004   0.00004   2.31488
   R28        2.09977   0.00000   0.00000   0.00000   0.00000   2.09977
    A1        1.95516   0.00000   0.00000   0.00009   0.00009   1.95525
    A2        1.94784   0.00000   0.00000   0.00027   0.00027   1.94810
    A3        1.87516  -0.00000   0.00000  -0.00030  -0.00030   1.87486
    A4        1.88904  -0.00000   0.00000  -0.00036  -0.00036   1.88868
    A5        1.89829  -0.00000   0.00000   0.00013   0.00013   1.89843
    A6        1.89711   0.00000   0.00000   0.00017   0.00017   1.89728
    A7        1.99429   0.00001   0.00000   0.00043   0.00043   1.99472
    A8        1.99044   0.00000   0.00000  -0.00007  -0.00009   1.99036
    A9        1.94100  -0.00000   0.00000   0.00033   0.00035   1.94135
   A10        1.86351  -0.00000   0.00000   0.00005  -0.00000   1.86351
   A11        1.89293  -0.00000   0.00000   0.00000   0.00002   1.89295
   A12        1.90205  -0.00000   0.00000  -0.00008  -0.00008   1.90197
   A13        1.86980   0.00000   0.00000  -0.00026  -0.00023   1.86957
   A14        2.07940   0.00000   0.00000  -0.00029  -0.00029   2.07911
   A15        2.11530  -0.00000   0.00000   0.00015   0.00015   2.11545
   A16        2.08848  -0.00000   0.00000   0.00013   0.00013   2.08861
   A17        2.09909  -0.00000   0.00000  -0.00032  -0.00032   2.09878
   A18        2.08765   0.00000   0.00000   0.00028   0.00028   2.08793
   A19        2.09645   0.00000   0.00000   0.00003   0.00003   2.09648
   A20        2.10380   0.00000   0.00000   0.00000   0.00000   2.10380
   A21        2.12627   0.00000   0.00000   0.00032   0.00032   2.12659
   A22        2.05312  -0.00000   0.00000  -0.00033  -0.00033   2.05279
   A23        1.91896   0.00000   0.00000   0.00007   0.00007   1.91903
   A24        2.14078  -0.00001   0.00000  -0.00045  -0.00045   2.14033
   A25        2.05411   0.00000   0.00000  -0.00011  -0.00011   2.05400
   A26        2.08830   0.00000   0.00000   0.00056   0.00056   2.08886
   A27        1.93957  -0.00001   0.00000  -0.00073  -0.00073   1.93884
   A28        1.93069   0.00000   0.00000   0.00077   0.00077   1.93146
   A29        1.93028   0.00000   0.00000  -0.00038  -0.00038   1.92989
   A30        1.89975   0.00000   0.00000  -0.00084  -0.00084   1.89891
   A31        1.90025   0.00000   0.00000   0.00111   0.00111   1.90136
   A32        1.86124  -0.00000   0.00000   0.00011   0.00011   1.86135
   A33        2.05001   0.00001   0.00000   0.00017   0.00017   2.05018
   A34        2.12233  -0.00000   0.00000   0.00003   0.00003   2.12237
   A35        2.11084  -0.00000   0.00000  -0.00020  -0.00020   2.11064
   A36        1.87671  -0.00000   0.00000   0.00002   0.00002   1.87674
   A37        2.07607   0.00000   0.00000  -0.00007  -0.00007   2.07601
   A38        2.12473  -0.00000   0.00000   0.00008   0.00008   2.12481
   A39        2.08238  -0.00000   0.00000  -0.00002  -0.00002   2.08236
   A40        2.16306  -0.00000   0.00000   0.00010   0.00010   2.16316
   A41        2.03052  -0.00000   0.00000   0.00022   0.00022   2.03074
   A42        2.08960   0.00000   0.00000  -0.00032  -0.00032   2.08928
   A43        3.12486   0.00000   0.00000   0.00171   0.00167   3.12653
   A44        3.16916  -0.00000   0.00000  -0.00123  -0.00121   3.16795
   A45        3.14668   0.00000   0.00000   0.00009   0.00008   3.14675
   A46        3.14774   0.00000   0.00000   0.00043   0.00037   3.14811
    D1       -1.09418  -0.00000   0.00000  -0.00048  -0.00048  -1.09466
    D2        1.02720  -0.00000   0.00000  -0.00068  -0.00068   1.02652
    D3        3.10524   0.00000   0.00000  -0.00051  -0.00051   3.10473
    D4        1.17045   0.00000   0.00000   0.00026   0.00029   1.17074
    D5       -0.97674   0.00000   0.00000   0.00005   0.00005  -0.97670
    D6       -3.01092   0.00000   0.00000   0.00015   0.00013  -3.01079
    D7        0.85916  -0.00000   0.00000  -0.24270  -0.24263   0.61653
    D8       -2.27661  -0.00000   0.00000  -0.24336  -0.24336  -2.51997
    D9        3.02915   0.00000   0.00000  -0.24305  -0.24301   2.78614
   D10       -0.10662  -0.00000   0.00000  -0.24371  -0.24373  -0.35036
   D11       -1.21703  -0.00000   0.00000  -0.24293  -0.24293  -1.45997
   D12        1.93038  -0.00000   0.00000  -0.24359  -0.24366   1.68672
   D13       -3.13735   0.00000   0.00000   0.00047   0.00050  -3.13685
   D14        0.00447  -0.00000   0.00000   0.00077   0.00079   0.00526
   D15        0.00104  -0.00000   0.00000   0.00036   0.00034   0.00138
   D16       -3.14033  -0.00000   0.00000   0.00065   0.00063  -3.13969
   D17        3.14053   0.00000   0.00000  -0.00010  -0.00012   3.14040
   D18        0.00029   0.00000   0.00000  -0.00063  -0.00066  -0.00037
   D19        0.00221   0.00000   0.00000   0.00002   0.00004   0.00225
   D20       -3.13803   0.00000   0.00000  -0.00051  -0.00049  -3.13853
   D21        3.13993   0.00000   0.00000  -0.00063  -0.00063   3.13930
   D22       -0.00332  -0.00000   0.00000  -0.00117  -0.00116  -0.00448
   D23       -0.00189   0.00000   0.00000  -0.00093  -0.00093  -0.00281
   D24        3.13805  -0.00000   0.00000  -0.00147  -0.00146   3.13659
   D25        0.00054  -0.00000   0.00000   0.00415   0.00415   0.00469
   D26       -3.13946   0.00000   0.00000   0.00466   0.00466  -3.13480
   D27       -3.13933   0.00000   0.00000   0.00082   0.00082  -3.13851
   D28        0.00215   0.00000   0.00000   0.00153   0.00153   0.00368
   D29        0.00066   0.00000   0.00000   0.00030   0.00030   0.00096
   D30       -3.14106   0.00000   0.00000   0.00101   0.00102  -3.14004
   D31        0.00767   0.00000   0.00000   0.02865   0.02865   0.03632
   D32       -2.10467   0.00000   0.00000   0.02967   0.02968  -2.07500
   D33        2.12037  -0.00000   0.00000   0.02930   0.02930   2.14967
   D34       -3.13380   0.00000   0.00000   0.02792   0.02792  -3.10588
   D35        1.03704   0.00000   0.00000   0.02895   0.02895   1.06599
   D36       -1.02110  -0.00000   0.00000   0.02857   0.02857  -0.99253
   D37        3.14156  -0.00000   0.00000  -0.00078  -0.00078   3.14078
   D38        0.00122  -0.00000   0.00000  -0.00114  -0.00114   0.00008
   D39       -0.00015  -0.00000   0.00000  -0.00009  -0.00009  -0.00024
   D40       -3.14049  -0.00000   0.00000  -0.00045  -0.00045  -3.14094
   D41       -3.13964   0.00000   0.00000  -0.00091  -0.00091  -3.14055
   D42        0.00071   0.00000   0.00000  -0.00056  -0.00056   0.00016
   D43       -0.00339  -0.00000   0.00000   0.00038   0.00037  -0.00301
   D44        3.13689  -0.00000   0.00000   0.00090   0.00090   3.13778
   D45        3.13950  -0.00000   0.00000   0.00001   0.00000   3.13950
   D46       -0.00341   0.00000   0.00000   0.00053   0.00053  -0.00289
   D47       -3.14025   0.00000   0.00000   0.00008   0.00008  -3.14017
   D48        0.00238  -0.00000   0.00000  -0.00033  -0.00033   0.00206
   D49        0.00270   0.00000   0.00000  -0.00046  -0.00046   0.00224
   D50       -3.13785  -0.00000   0.00000  -0.00086  -0.00086  -3.13872
         Item               Value     Threshold  Converged?
 Maximum Force            0.000007     0.000450     YES
 RMS     Force            0.000002     0.000300     YES
 Maximum Displacement     0.643752     0.001800     NO
 RMS     Displacement     0.168504     0.001200     NO
 Predicted change in Energy=-4.500597D-06
 GradGradGradGradGradGradGradGradGradGradGradGradGradGradGradGradGradGrad

                          Input orientation:
 ---------------------------------------------------------------------
 Center     Atomic      Atomic             Coordinates (Angstroms)
 Number     Number       Type             X           Y           Z
 ---------------------------------------------------------------------
      1          6           0       -4.826358   -0.628890    1.305059
      2          8           0       -4.891040   -0.715371   -0.090729
      3          6           0       -4.145449    0.254583   -0.760882
      4          6           0       -2.688330    0.117082   -0.588351
      5          6           0       -1.492575    0.002690   -0.427460
      6          6           0       -0.078376   -0.170637   -0.245952
      7          6           0        0.439036   -1.455436   -0.159346
      8          6           0        1.820915   -1.652692    0.024288
      9          8           0        2.328459   -2.895824    0.111667
     10          6           0        2.711924   -0.581447    0.119669
     11          6           0        4.188049   -0.771337    0.311494
     12          6           0        2.182885    0.718244    0.030469
     13          8           0        3.032159    1.731587    0.122475
     14          6           0        0.792598    0.945067   -0.150199
     15          6           0        0.299053    2.309326   -0.231105
     16          8           0        1.014163    3.300992   -0.154950
     17          1           0       -3.799306   -0.786589    1.683192
     18          1           0       -5.182361    0.354231    1.669851
     19          1           0       -5.477280   -1.412602    1.713366
     20          1           0       -4.441457    1.276851   -0.447003
     21          1           0       -4.389701    0.160459   -1.829923
     22          1           0       -0.231878   -2.313986   -0.234936
     23          1           0        1.623747   -3.544774    0.026504
     24          1           0        4.450093   -1.835127    0.325845
     25          1           0        4.519468   -0.311585    1.255188
     26          1           0        4.749669   -0.275999   -0.494791
     27          1           0        2.509088    2.566641    0.042701
     28          1           0       -0.796777    2.430003   -0.369862
 ---------------------------------------------------------------------
                    Distance matrix (angstroms):
                    1          2          3          4          5
     1  C    0.000000
     2  O    1.399960   0.000000
     3  C    2.347823   1.394927   0.000000
     4  C    2.951718   2.406770   1.473727   0.000000
     5  C    3.809806   3.489780   2.685584   1.211941   0.000000
     6  C    5.015871   4.845881   4.121534   2.647995   1.436296
     7  C    5.527389   5.381646   4.929859   3.526651   2.434981
     8  C    6.846516   6.778064   6.312820   4.882695   3.731432
     9  O    7.599643   7.544303   7.252440   5.893708   4.826214
    10  C    7.631061   7.607054   6.964042   5.491081   4.279997
    11  C    9.070115   9.088167   8.464614   6.991680   5.780541
    12  C    7.250437   7.218751   6.394453   4.947026   3.772363
    13  O    8.290154   8.295189   7.381052   5.986309   4.874909
    14  C    6.013966   5.921515   5.023347   3.604774   2.487361
    15  C    6.104322   6.008791   4.925062   3.722636   2.927295
    16  O    7.189387   7.141899   6.022405   4.902405   4.151722
    17  H    1.105753   2.084168   2.679059   2.685293   3.224720
    18  H    1.107401   2.080519   2.644538   3.372819   4.258734
    19  H    1.097552   2.021032   3.267290   3.926332   4.739627
    20  H    2.617197   2.073163   1.109583   2.106775   3.212440
    21  H    3.262186   2.010774   1.100621   2.106667   3.222597
    22  H    5.130339   4.927896   4.710648   3.474067   2.644505
    23  H    7.193117   7.103641   6.952605   5.690451   4.743632
    24  H    9.405658   9.417227   8.912419   7.456806   6.265807
    25  H    9.351344   9.514842   8.914364   7.452164   6.250979
    26  H    9.750092   9.659172   8.914900   7.448966   6.248825
    27  H    8.100231   8.096376   7.090432   5.780287   4.775794
    28  H    5.329138   5.170521   4.012351   2.995883   2.525728
                    6          7          8          9         10
     6  C    0.000000
     7  C    1.387776   0.000000
     8  C    2.424216   1.407914   0.000000
     9  O    3.653408   2.391252   1.345590   0.000000
    10  C    2.843979   2.451066   1.396625   2.345943   0.000000
    11  C    4.344418   3.839893   2.542164   2.830451   1.500600
    12  C    2.445367   2.793193   2.398416   3.617910   1.406071
    13  O    3.664646   4.118353   3.595845   4.680625   2.335099
    14  C    1.418648   2.426418   2.799328   4.144863   2.467161
    15  C    2.508564   3.768047   4.251927   5.597282   3.781740
    16  O    3.640623   4.791075   5.022147   6.340267   4.246309
    17  H    4.236309   4.669673   5.923595   6.668438   6.699462
    18  H    5.476901   6.182310   7.468701   8.330858   8.099277
    19  H    5.876187   6.205778   7.494951   8.105242   8.384137
    20  H    4.601317   5.600656   6.929765   7.972144   7.412506
    21  H    4.605009   5.358977   6.730332   7.631795   7.401649
    22  H    2.148867   1.092221   2.172203   2.648395   3.434153
    23  H    3.788965   2.409027   1.902328   0.961772   3.158182
    24  H    4.858448   4.058098   2.652696   2.381656   2.153010
    25  H    4.838746   4.467576   3.255131   3.575816   2.151615
    26  H    4.835602   4.481647   3.277549   3.618499   2.150178
    27  H    3.777696   4.528029   4.275125   5.465886   3.155554
    28  H    2.700886   4.082669   4.865806   6.193820   4.649672
                   11         12         13         14         15
    11  C    0.000000
    12  C    2.513664   0.000000
    13  O    2.763411   1.325367   0.000000
    14  C    3.832530   1.420207   2.389267   0.000000
    15  C    4.990910   2.479675   2.815789   1.453043   0.000000
    16  O    5.184108   2.840929   2.571440   2.366325   1.224983
    17  H    8.104296   6.386127   7.446205   5.238849   5.481402
    18  H    9.535020   7.554265   8.471707   6.273899   6.122249
    19  H    9.787495   8.127163   9.210181   6.952903   7.141411
    20  H    8.901615   6.664978   7.509063   5.252952   4.856444
    21  H    8.889977   6.853544   7.833537   5.503935   5.399839
    22  H    4.713184   3.885349   5.210407   3.417332   4.653699
    23  H    3.787983   4.299531   5.461943   4.569541   6.007633
    24  H    1.095683   3.427416   3.843611   4.618806   5.892183
    25  H    1.100804   2.831979   2.769419   4.176583   5.185571
    26  H    1.100397   2.802284   2.713164   4.155497   5.153777
    27  H    3.746098   1.877000   0.988575   2.369187   2.241749
    28  H    5.963331   3.459591   3.923128   2.186184   1.111153
                   16         17         18         19         20
    16  O    0.000000
    17  H    6.576972   0.000000
    18  H    7.100015   1.792900   0.000000
    19  H    8.236954   1.791202   1.791807   0.000000
    20  H    5.826340   3.034448   2.425126   3.601845   0.000000
    21  H    6.470721   3.686115   3.593644   4.026444   1.778055
    22  H    5.752129   4.328821   5.937581   5.667682   5.537114
    23  H    6.875247   6.305688   8.014108   7.603700   7.762665
    24  H    6.198104   8.425818   9.969143  10.032771   9.452056
    25  H    5.227462   8.343310   9.733486  10.067629   9.258443
    26  H    5.183084   8.836814  10.184698  10.524178   9.321503
    27  H    1.677241   7.330157   8.167053   9.077862   7.086145
    28  H    2.020968   4.855582   5.263326   6.404106   3.823533
                   21         22         23         24         25
    21  H    0.000000
    22  H    5.094541   0.000000
    23  H    7.303193   2.241993   0.000000
    24  H    9.315130   4.739687   3.316735   0.000000
    25  H    9.440023   5.367064   4.510918   1.785965   0.000000
    26  H    9.246683   5.388574   4.552804   1.787196   1.765414
    27  H    7.542528   5.604507   6.175231   4.819048   3.714288
    28  H    4.493519   4.779409   6.458638   6.797425   6.198351
                   26         27         28
    26  H    0.000000
    27  H    3.659194   0.000000
    28  H    6.172610   3.334310   0.000000
 Stoichiometry    C12H12O4
 Framework group  C1[X(C12H12O4)]
 Deg. of freedom    78
 Full point group                 C1      NOp   1
 Largest Abelian subgroup         C1      NOp   1
 Largest concise Abelian subgroup C1      NOp   1
                         Standard orientation:
 ---------------------------------------------------------------------
 Center     Atomic      Atomic             Coordinates (Angstroms)
 Number     Number       Type             X           Y           Z
 ---------------------------------------------------------------------
      1          6           0       -4.839495   -0.671683    1.275922
      2          8           0       -4.907463   -0.649759   -0.122215
      3          6           0       -4.147638    0.357040   -0.717903
      4          6           0       -2.692624    0.184026   -0.560201
      5          6           0       -1.498594    0.039013   -0.411656
      6          6           0       -0.087046   -0.169737   -0.247642
      7          6           0        0.410215   -1.465295   -0.261204
      8          6           0        1.789075   -1.697562   -0.096821
      9          8           0        2.277126   -2.951487   -0.106390
     10          6           0        2.696952   -0.650805    0.078161
     11          6           0        4.170172   -0.877824    0.251031
     12          6           0        2.188295    0.659980    0.090309
     13          8           0        3.053528    1.649922    0.257592
     14          6           0        0.801499    0.921626   -0.068825
     15          6           0        0.329359    2.295591   -0.043546
     16          8           0        1.060081    3.267228    0.106618
     17          1           0       -3.814527   -0.873916    1.638182
     18          1           0       -5.179486    0.285963    1.715986
     19          1           0       -5.502096   -1.474190    1.624580
     20          1           0       -4.427097    1.356687   -0.325752
     21          1           0       -4.394820    0.349062   -1.790378
     22          1           0       -0.274222   -2.304957   -0.400704
     23          1           0        1.562178   -3.580931   -0.239267
     24          1           0        4.415474   -1.943529    0.183045
     25          1           0        4.510088   -0.497077    1.226357
     26          1           0        4.738396   -0.330869   -0.516325
     27          1           0        2.543544    2.496680    0.243475
     28          1           0       -0.764629    2.443614   -0.169798
 ---------------------------------------------------------------------
 Rotational constants (GHZ):           0.8277129           0.2698257           0.2119432
 Standard basis: def2SVP (5D, 7F)
 There are   300 symmetry adapted cartesian basis functions of A   symmetry.
 There are   284 symmetry adapted basis functions of A   symmetry.
   284 basis functions,   484 primitive gaussians,   300 cartesian basis functions
    58 alpha electrons       58 beta electrons
       nuclear repulsion energy      1022.5516591487 Hartrees.
 NAtoms=   28 NActive=   28 NUniq=   28 SFac= 1.00D+00 NAtFMM=   60 NAOKFM=F Big=F
 Integral buffers will be    131072 words long.
 Raffenetti 2 integral format.
 Two-electron integral symmetry is turned on.
 Nuclear repulsion after empirical dispersion term =     1022.5365424781 Hartrees.
 One-electron integrals computed using PRISM.
   1 Symmetry operations used in ECPInt.
 ECPInt:  NShTT=    8778 NPrTT=   32122 LenC2=    7876 LenP2D=   20471.
 LDataN:  DoStor=T MaxTD1= 4 Len=   56
[...]
   A12        1.90195   0.00001   0.00010  -0.00000   0.00010   1.90205
   A13        1.86955  -0.00002   0.00024   0.00000   0.00024   1.86980
   A14        2.07910  -0.00002   0.00030   0.00001   0.00030   2.07940
   A15        2.11546   0.00003  -0.00015  -0.00000  -0.00015   2.11530
   A16        2.08863  -0.00000  -0.00014  -0.00000  -0.00015   2.08848
   A17        2.09875   0.00004   0.00034  -0.00000   0.00034   2.09908
   A18        2.08796  -0.00001  -0.00031  -0.00000  -0.00031   2.08765
   A19        2.09648  -0.00003  -0.00003   0.00000  -0.00003   2.09645
   A20        2.10379  -0.00009   0.00000  -0.00000   0.00000   2.10379
   A21        2.12662  -0.00001  -0.00034  -0.00000  -0.00034   2.12628
   A22        2.05277   0.00010   0.00034   0.00000   0.00034   2.05312
   A23        1.91905  -0.00002  -0.00009   0.00001  -0.00008   1.91897
   A24        2.14031   0.00016   0.00045  -0.00001   0.00044   2.14075
   A25        2.05400  -0.00004   0.00011   0.00001   0.00012   2.05412
   A26        2.08888  -0.00012  -0.00057   0.00000  -0.00056   2.08831
   A27        1.93879   0.00015   0.00076  -0.00003   0.00073   1.93953
   A28        1.93150  -0.00005  -0.00080  -0.00000  -0.00080   1.93070
   A29        1.92988  -0.00000   0.00039   0.00002   0.00041   1.93029
   A30        1.89893  -0.00005   0.00081   0.00006   0.00086   1.89979
   A31        1.90138  -0.00006  -0.00110  -0.00004  -0.00114   1.90024
   A32        1.86134   0.00000  -0.00010  -0.00000  -0.00011   1.86124
   A33        2.05017  -0.00010  -0.00016   0.00001  -0.00014   2.05003
   A34        2.12238   0.00006  -0.00005  -0.00001  -0.00005   2.12233
   A35        2.11063   0.00004   0.00020  -0.00001   0.00020   2.11083
   A36        1.87676   0.00005  -0.00004   0.00000  -0.00004   1.87672
   A37        2.07599  -0.00004   0.00008   0.00000   0.00009   2.07608
   A38        2.12481   0.00002  -0.00008  -0.00001  -0.00009   2.12472
   A39        2.08238   0.00002   0.00000   0.00000   0.00000   2.08238
   A40        2.16317   0.00000  -0.00011  -0.00000  -0.00011   2.16306
   A41        2.03076   0.00003  -0.00023  -0.00000  -0.00023   2.03052
   A42        2.08926  -0.00003   0.00033   0.00001   0.00034   2.08960
   A43        3.12672  -0.00005  -0.00182   0.00002  -0.00180   3.12492
   A44        3.16780   0.00006   0.00134  -0.00002   0.00132   3.16912
   A45        3.14676  -0.00005  -0.00008  -0.00000  -0.00009   3.14667
   A46        3.14813  -0.00002  -0.00038   0.00002  -0.00036   3.14776
    D1       -1.09487   0.00003   0.00067  -0.00005   0.00062  -1.09424
    D2        1.02632  -0.00000   0.00087  -0.00005   0.00081   1.02713
    D3        3.10455  -0.00000   0.00068  -0.00004   0.00064   3.10518
    D4        1.17083   0.00000  -0.00037   0.00007  -0.00030   1.17053
    D5       -0.97666   0.00003  -0.00008   0.00008  -0.00000  -0.97666
    D6       -3.01074   0.00002  -0.00017   0.00007  -0.00010  -3.01084
    D7        0.59327   0.00004   0.26073  -0.00016   0.26056   0.85383
    D8       -2.54334   0.00006   0.26154  -0.00022   0.26132  -2.28202
    D9        2.76289  -0.00001   0.26109  -0.00016   0.26093   3.02381
   D10       -0.37372   0.00000   0.26190  -0.00022   0.26169  -0.11203
   D11       -1.48324   0.00002   0.26103  -0.00017   0.26086  -1.22238
   D12        1.66334   0.00003   0.26185  -0.00023   0.26162   1.92496
   D13       -3.13679  -0.00001  -0.00055  -0.00003  -0.00058  -3.13737
   D14        0.00533  -0.00000  -0.00084  -0.00002  -0.00086   0.00447
   D15        0.00145  -0.00000  -0.00041   0.00000  -0.00040   0.00105
   D16       -3.13961   0.00001  -0.00070   0.00002  -0.00068  -3.14030
   D17        3.14042   0.00000   0.00010   0.00005   0.00015   3.14057
   D18       -0.00049   0.00001   0.00076   0.00006   0.00083   0.00033
   D19        0.00225  -0.00001  -0.00005   0.00001  -0.00003   0.00222
   D20       -3.13867   0.00000   0.00062   0.00003   0.00065  -3.13802
   D21        3.13924   0.00001   0.00068   0.00002   0.00070   3.13994
   D22       -0.00459   0.00001   0.00125  -0.00000   0.00125  -0.00334
   D23       -0.00288  -0.00000   0.00097   0.00000   0.00098  -0.00190
   D24        3.13647   0.00000   0.00155  -0.00002   0.00153   3.13800
   D25        0.00485   0.00001  -0.00422  -0.00009  -0.00431   0.00053
   D26       -3.13459   0.00000  -0.00477  -0.00007  -0.00485  -3.13944
   D27       -3.13838  -0.00002  -0.00093   0.00003  -0.00089  -3.13928
   D28        0.00374  -0.00001  -0.00157  -0.00001  -0.00158   0.00217
   D29        0.00103  -0.00002  -0.00037   0.00001  -0.00036   0.00067
   D30       -3.14003  -0.00001  -0.00101  -0.00003  -0.00104  -3.14107
   D31        0.03665  -0.00001  -0.02841  -0.00104  -0.02946   0.00719
   D32       -2.07468  -0.00002  -0.02941  -0.00109  -0.03050  -2.10518
   D33        2.14997   0.00001  -0.02903  -0.00110  -0.03012   2.11985
   D34       -3.10549  -0.00002  -0.02776  -0.00100  -0.02876  -3.13425
   D35        1.06636  -0.00003  -0.02875  -0.00105  -0.02980   1.03656
   D36       -0.99217   0.00000  -0.02837  -0.00106  -0.02943  -1.02159
   D37        3.14082   0.00000   0.00073   0.00001   0.00074   3.14156
   D38        0.00010   0.00000   0.00110   0.00002   0.00112   0.00122
   D39       -0.00026   0.00001   0.00011  -0.00003   0.00008  -0.00018
   D40       -3.14098   0.00001   0.00048  -0.00002   0.00046  -3.14052
   D41       -3.14060  -0.00001   0.00094   0.00004   0.00099  -3.13961
   D42        0.00013  -0.00001   0.00058   0.00003   0.00061   0.00074
   D43       -0.00306   0.00001  -0.00032  -0.00003  -0.00034  -0.00340
   D44        3.13787  -0.00000  -0.00096  -0.00004  -0.00100   3.13687
   D45        3.13943   0.00001   0.00007  -0.00001   0.00005   3.13948
   D46       -0.00282   0.00000  -0.00058  -0.00003  -0.00061  -0.00343
   D47       -3.14011  -0.00001  -0.00014   0.00000  -0.00014  -3.14025
   D48        0.00207   0.00000   0.00031   0.00000   0.00031   0.00238
   D49        0.00216   0.00000   0.00053   0.00001   0.00054   0.00270
   D50       -3.13885   0.00002   0.00098   0.00001   0.00099  -3.13786
         Item               Value     Threshold  Converged?
 Maximum Force            0.000179     0.000450     YES
 RMS     Force            0.000040     0.000300     YES
 Maximum Displacement     0.691431     0.001800     NO
 RMS     Displacement     0.180896     0.001200     NO
 Predicted change in Energy=-1.975421D-05
 GradGradGradGradGradGradGradGradGradGradGradGradGradGradGradGradGradGrad

                          Input orientation:
 ---------------------------------------------------------------------
 Center     Atomic      Atomic             Coordinates (Angstroms)
 Number     Number       Type             X           Y           Z
 ---------------------------------------------------------------------
      1          6           0       -4.812411   -0.392065    1.371237
      2          8           0       -4.888574   -0.724907    0.013518
      3          6           0       -4.146205    0.108433   -0.823600
      4          6           0       -2.687946   -0.000940   -0.640027
      5          6           0       -1.491497   -0.089284   -0.468249
      6          6           0       -0.075234   -0.232931   -0.275604
      7          6           0        0.478151   -1.505300   -0.253871
      8          6           0        1.862715   -1.673846   -0.061584
      9          8           0        2.404772   -2.905175   -0.037670
     10          6           0        2.720652   -0.584968    0.108138
     11          6           0        4.198998   -0.742906    0.311423
     12          6           0        2.155349    0.702389    0.083999
     13          8           0        2.973725    1.732331    0.245551
     14          6           0        0.761707    0.899689   -0.104209
     15          6           0        0.229669    2.251919   -0.114795
     16          8           0        0.914641    3.257408    0.027824
     17          1           0       -3.782581   -0.483216    1.763330
     18          1           0       -5.164111    0.641283    1.558069
     19          1           0       -5.461132   -1.088686    1.917557
     20          1           0       -4.437904    1.171031   -0.693527
     21          1           0       -4.398954   -0.172942   -1.857095
     22          1           0       -0.166729   -2.376673   -0.387118
     23          1           0        1.719676   -3.567851   -0.166188
     24          1           0        4.488687   -1.799467    0.298871
     25          1           0        4.507737   -0.300894    1.270965
     26          1           0        4.756841   -0.211407   -0.474420
     27          1           0        2.427785    2.555490    0.205745
     28          1           0       -0.867409    2.348944   -0.261989
 ---------------------------------------------------------------------
                    Distance matrix (angstroms):
                    1          2          3          4          5
     1  C    0.000000
     2  O    1.399995   0.000000
     3  C    2.347688   1.395110   0.000000
     4  C    2.951527   2.407075   1.473832   0.000000
     5  C    3.808392   3.489448   2.685674   1.211942   0.000000
     6  C    5.017793   4.847047   4.121848   2.648186   1.436505
     7  C    5.645380   5.429756   4.930862   3.526527   2.435278
     8  C    6.946456   6.818066   6.313819   4.882799   3.731883
     9  O    7.771002   7.612430   7.253608   5.893487   4.826547
    10  C    7.640659   7.611101   6.964386   5.491246   4.280202
    11  C    9.080297   9.092471   8.464956   6.991836   5.780731
    12  C    7.169693   7.187419   6.394225   4.947363   3.772428
    13  O    8.148874   8.240607   7.380619   5.986903   4.875038
    14  C    5.909006   5.880378   5.023068   3.605321   2.487472
    15  C    5.884004   5.922361   4.923942   3.723401   2.927212
    16  O    6.922610   7.038205   6.021057   4.903212   4.151618
    17  H    1.105710   2.084101   2.678521   2.684575   3.222451
    18  H    1.107432   2.080392   2.644316   3.372754   4.257674
    19  H    1.097536   2.021268   3.267425   3.926192   4.738024
    20  H    2.616634   2.073065   1.109559   2.106830   3.212547
    21  H    3.262068   2.010867   1.100530   2.106747   3.223228
    22  H    5.349097   5.018432   4.711953   3.473414   2.644568
    23  H    7.424113   7.196082   6.953835   5.689860   4.743765
    24  H    9.467902   9.442940   8.914112   7.457901   6.267041
    25  H    9.321134   9.489553   8.913219   7.451156   6.249837
    26  H    9.747290   9.671390   8.915630   7.449603   6.249535
    27  H    7.903600   8.020415   7.089781   5.781122   4.775968
    28  H    5.073815   5.068947   4.010711   2.996535   2.525269
                    6          7          8          9         10
     6  C    0.000000
     7  C    1.387672   0.000000
     8  C    2.424394   1.407976   0.000000
     9  O    3.653483   2.391288   1.345574   0.000000
    10  C    2.843971   2.450892   1.396609   2.346146   0.000000
    11  C    4.344392   3.839988   2.542441   2.831347   1.500592
    12  C    2.445330   2.793034   2.398608   3.618222   1.406214
    13  O    3.664698   4.118200   3.595931   4.680853   2.335124
    14  C    1.418687   2.426268   2.799485   4.145007   2.467137
    15  C    2.508645   3.767994   4.252211   5.597557   3.781881
    16  O    3.640657   4.790956   5.022360   6.340521   4.246407
    17  H    4.238433   4.823649   6.051221   6.884244   6.711338
    18  H    5.479350   6.302862   7.573598   8.509509   8.110209
    19  H    5.877939   6.337488   7.609083   8.306322   8.394601
    20  H    4.602027   5.614592   6.941936   7.991734   7.414251
    21  H    4.604265   5.303929   6.684689   7.554210   7.397344
    22  H    2.148589   1.092207   2.172230   2.648405   3.434015
    23  H    3.788848   2.408980   1.902277   0.961776   3.158290
    24  H    4.859366   4.059120   2.653571   2.382971   2.153447
    25  H    4.837367   4.473621   3.264480   3.594060   2.150939
    26  H    4.836212   4.475487   3.268811   3.602689   2.150578
    27  H    3.777843   4.527951   4.275284   5.466137   3.155595
    28  H    2.700704   4.082376   4.865858   6.193808   4.649625
                   11         12         13         14         15
    11  C    0.000000
    12  C    2.513384   0.000000
    13  O    2.762685   1.325375   0.000000
    14  C    3.832211   1.420067   2.389278   0.000000
    15  C    4.990612   2.479679   2.815967   1.453170   0.000000
    16  O    5.183622   2.840886   2.571593   2.366360   1.224964
    17  H    8.116716   6.283695   7.270487   5.103986   5.206387
    18  H    9.546618   7.466667   8.314895   6.159972   5.872434
    19  H    9.798844   8.036210   9.049893   6.838486   6.904730
    20  H    8.903323   6.655461   7.491940   5.239930   4.825917
    21  H    8.885500   6.891512   7.899847   5.554778   5.508149
    22  H    4.713463   3.885179   5.210243   3.417101   4.653509
    23  H    3.788861   4.299692   5.462060   4.569514   6.007702
    24  H    1.095627   3.427815   3.843377   4.619339   5.892714
    25  H    1.100642   2.819432   2.745664   4.167163   5.170982
    26  H    1.100558   2.813292   2.734223   4.163255   5.166488
    27  H    3.745368   1.876974   0.988548   2.369297   2.242012
    28  H    5.962954   3.459468   3.923279   2.186150   1.111152
                   16         17         18         19         20
    16  O    0.000000
    17  H    6.250451   0.000000
    18  H    6.792421   1.793114   0.000000
    19  H    7.944187   1.791065   1.791716   0.000000
    20  H    5.789909   3.033501   2.424395   3.601538   0.000000
    21  H    6.599584   3.685602   3.593295   4.026761   1.778109
    22  H    5.751904   4.613457   6.153506   5.916176   5.560847
    23  H    6.875309   6.596426   8.250842   7.877325   7.787867
    24  H    6.198326   8.502413  10.035903  10.105654   9.460060
    25  H    5.207423   8.306927   9.721871  10.020831   9.276329
    26  H    5.200714   8.831938  10.162843  10.530819   9.300671
    27  H    1.677483   7.087204   7.945430   8.856937   7.061381
    28  H    2.021138   4.541066   4.968940   6.137590   3.784460
                   21         22         23         24         25
    21  H    0.000000
    22  H    4.992893   0.000000
    23  H    7.198764   2.241928   0.000000
    24  H    9.288914   4.740954   3.318265   0.000000
    25  H    9.440883   5.376684   4.528984   1.786350   0.000000
    26  H    9.259689   5.379363   4.537080   1.786566   1.765341
    27  H    7.635706   5.604393   6.175359   4.818884   3.690505
    28  H    4.623427   4.778918   6.458378   6.797914   6.185773
                   26         27         28
    26  H    0.000000
    27  H    3.680061   0.000000
    28  H    6.183260   3.334627   0.000000
 Stoichiometry    C12H12O4
 Framework group  C1[X(C12H12O4)]
 Deg. of freedom    78
 Full point group                 C1      NOp   1
 Largest Abelian subgroup         C1      NOp   1
 Largest concise Abelian subgroup C1      NOp   1
                         Standard orientation:
 ---------------------------------------------------------------------
 Center     Atomic      Atomic             Coordinates (Angstroms)
 Number     Number       Type             X           Y           Z
 ---------------------------------------------------------------------
      1          6           0       -4.812143   -0.395319    1.372296
      2          8           0       -4.888830   -0.724760    0.013777
      3          6           0       -4.146683    0.110598   -0.821524
      4          6           0       -2.688368    0.000625   -0.638754
      5          6           0       -1.491866   -0.088263   -0.467630
      6          6           0       -0.075547   -0.232528   -0.275858
      7          6           0        0.477722   -1.505001   -0.257505
      8          6           0        1.862339   -1.674161   -0.066142
      9          8           0        2.404284   -2.905598   -0.045502
     10          6           0        2.720444   -0.585793    0.105990
     11          6           0        4.198848   -0.744381    0.308345
     12          6           0        2.155258    0.701674    0.085273
     13          8           0        2.973792    1.731131    0.249102
     14          6           0        0.761566    0.899579   -0.101936
     15          6           0        0.229656    2.251882   -0.108950
     16          8           0        0.914778    3.256946    0.035934
     17          1           0       -3.782180   -0.487551    1.763787
     18          1           0       -5.163675    0.637592    1.561837
     19          1           0       -5.460734   -1.093241    1.917108
     20          1           0       -4.438231    1.172896   -0.688690
     21          1           0       -4.399833   -0.168169   -1.855628
     22          1           0       -0.167292   -2.375976   -0.392697
     23          1           0        1.719077   -3.567884   -0.175428
     24          1           0        4.488429   -1.800935    0.293047
     25          1           0        4.507977   -0.304799    1.268876
     26          1           0        4.756458   -0.210974   -0.476370
     27          1           0        2.427918    2.554440    0.211551
     28          1           0       -0.867465    2.349381   -0.255504
 ---------------------------------------------------------------------
 Rotational constants (GHZ):           0.8324674           0.2691929           0.2133858
 Standard basis: def2SVP (5D, 7F)
 There are   300 symmetry adapted cartesian basis functions of A   symmetry.
 There are   284 symmetry adapted basis functions of A   symmetry.
   284 basis functions,   484 primitive gaussians,   300 cartesian basis functions
    58 alpha electrons       58 beta electrons
       nuclear repulsion energy      1022.9335770907 Hartrees.
 NAtoms=   28 NActive=   28 NUniq=   28 SFac= 1.00D+00 NAtFMM=   60 NAOKFM=F Big=F
 Integral buffers will be    131072 words long.
 Raffenetti 2 integral format.
 Two-electron integral symmetry is turned on.
 Nuclear repulsion after empirical dispersion term =     1022.9184541229 Hartrees.
 One-electron integrals computed using PRISM.
   1 Symmetry operations used in ECPInt.
 ECPInt:  NShTT=    8778 NPrTT=   32122 LenC2=    7881 LenP2D=   20477.
 LDataN:  DoStor=T MaxTD1= 4 Len=   56
 NBasis=   284 RedAO= T EigKep=  1.80D-04  NBF=   284
 NBsUse=   284 1.00D-06 EigRej= -1.00D+00 NBFU=   284
 Lowest energy guess from the checkpoint file:  "NVAMCAUNVWYMKC-UHFFFAOYSA-N_10.chk"
 B after Tr=    -0.000000    0.000000   -0.000000
         Rot=    1.000000   -0.000610    0.000001    0.000231 Ang=  -0.07 deg.
 B after Tr=    -0.000000   -0.000000   -0.000000
         Rot=    0.999580    0.026874    0.000111   -0.010864 Ang=   3.32 deg.
 Requested convergence on RMS density matrix=1.00D-08 within 128 cycles.
 Requested convergence on MAX density matrix=1.00D-06.
 Requested convergence on             energy=1.00D-06.
 No special actions if energy rises.
 Integral accuracy reduced to 1.0D-05 until final iterations.
 Initial convergence to 1.0D-05 achieved.  Increase integral accuracy.
 SCF Done:  E(RwB97XD) =  -764.523388277     A.U. after    9 cycles
            NFock=  9  Conv=0.87D-08     -V/T= 2.0096
 DoSCS=F DFT=T ScalE2(SS,OS)=  1.000000  1.000000
 Range of M.O.s used for correlation:     1   284
 NBasis=   284 NAE=    58 NBE=    58 NFC=     0 NFV=     0
 NROrb=    284 NOA=    58 NOB=    58 NVA=   226 NVB=   226

 **** Warning!!: The largest alpha MO coefficient is  0.13459537D+02

   1 Symmetry operations used in ECPInt.
 ECPInt:  NShTT=    8778 NPrTT=   32122 LenC2=    7881 LenP2D=   20477.
 LDataN:  DoStor=T MaxTD1= 5 Len=  102
 Symmetrizing basis deriv contribution to polar:
 IMax=3 JMax=2 DiffMx= 0.00D+00
 G2DrvN: will do    29 centers at a time, making    1 passes.
 Calling FoFCou, ICntrl=  3107 FMM=F I1Cent=   0 AccDes= 0.00D+00.
